V -t * -v 1.0a5 -a 0
A -t * -n 1 -p 0 -o 0x7fffffff -c 30 -a 1
A -t * -h 1 -m 1073741823 -s 0
c -t * -i 1 -n Blue
c -t * -i 2 -n Red
c -t * -i 3 -n Yellow
n -t * -a 0 -s 0 -S UP -v circle -c black -i black
n -t * -a 1 -s 1 -S UP -v circle -c black -i black
n -t * -a 2 -s 2 -S UP -v circle -c black -i black
n -t * -a 3 -s 3 -S UP -v circle -c black -i black
l -t * -s 0 -d 2 -S UP -r 2000000 -D 0.01 -c black -o right-down
l -t * -s 1 -d 2 -S UP -r 2000000 -D 0.01 -c black -o right-up
l -t * -s 3 -d 2 -S UP -r 1700000 -D 0.02 -c black -o left
+ -t 0.5 -s 0 -d 2 -p tcp -e 40 -c 1 -i 0 -a 1 -x {0.0 2.0 0 ------- null}
- -t 0.5 -s 0 -d 2 -p tcp -e 40 -c 1 -i 0 -a 1 -x {0.0 2.0 0 ------- null}
h -t 0.5 -s 0 -d 2 -p tcp -e 40 -c 1 -i 0 -a 1 -x {0.0 2.0 -1 ------- null}
r -t 0.51016 -s 0 -d 2 -p tcp -e 40 -c 1 -i 0 -a 1 -x {0.0 2.0 0 ------- null}
+ -t 0.51016 -s 2 -d 0 -p ack -e 40 -c 1 -i 1 -a 1 -x {2.0 0.0 0 ------- null}
- -t 0.51016 -s 2 -d 0 -p ack -e 40 -c 1 -i 1 -a 1 -x {2.0 0.0 0 ------- null}
h -t 0.51016 -s 2 -d 0 -p ack -e 40 -c 1 -i 1 -a 1 -x {2.0 0.0 -1 ------- null}
r -t 0.52032 -s 2 -d 0 -p ack -e 40 -c 1 -i 1 -a 1 -x {2.0 0.0 0 ------- null}
+ -t 0.52032 -s 0 -d 2 -p tcp -e 1040 -c 1 -i 2 -a 1 -x {0.0 2.0 1 ------- null}
- -t 0.52032 -s 0 -d 2 -p tcp -e 1040 -c 1 -i 2 -a 1 -x {0.0 2.0 1 ------- null}
h -t 0.52032 -s 0 -d 2 -p tcp -e 1040 -c 1 -i 2 -a 1 -x {0.0 2.0 -1 ------- null}
+ -t 0.52032 -s 0 -d 2 -p tcp -e 1040 -c 1 -i 3 -a 1 -x {0.0 2.0 2 ------- null}
- -t 0.52448 -s 0 -d 2 -p tcp -e 1040 -c 1 -i 3 -a 1 -x {0.0 2.0 2 ------- null}
h -t 0.52448 -s 0 -d 2 -p tcp -e 1040 -c 1 -i 3 -a 1 -x {0.0 2.0 -1 ------- null}
r -t 0.53448 -s 0 -d 2 -p tcp -e 1040 -c 1 -i 2 -a 1 -x {0.0 2.0 1 ------- null}
+ -t 0.53448 -s 2 -d 0 -p ack -e 40 -c 1 -i 4 -a 1 -x {2.0 0.0 1 ------- null}
- -t 0.53448 -s 2 -d 0 -p ack -e 40 -c 1 -i 4 -a 1 -x {2.0 0.0 1 ------- null}
h -t 0.53448 -s 2 -d 0 -p ack -e 40 -c 1 -i 4 -a 1 -x {2.0 0.0 -1 ------- null}
r -t 0.53864 -s 0 -d 2 -p tcp -e 1040 -c 1 -i 3 -a 1 -x {0.0 2.0 2 ------- null}
+ -t 0.53864 -s 2 -d 0 -p ack -e 40 -c 1 -i 5 -a 1 -x {2.0 0.0 2 ------- null}
- -t 0.53864 -s 2 -d 0 -p ack -e 40 -c 1 -i 5 -a 1 -x {2.0 0.0 2 ------- null}
h -t 0.53864 -s 2 -d 0 -p ack -e 40 -c 1 -i 5 -a 1 -x {2.0 0.0 -1 ------- null}
r -t 0.54464 -s 2 -d 0 -p ack -e 40 -c 1 -i 4 -a 1 -x {2.0 0.0 1 ------- null}
+ -t 0.54464 -s 0 -d 2 -p tcp -e 1040 -c 1 -i 6 -a 1 -x {0.0 2.0 3 ------- null}
- -t 0.54464 -s 0 -d 2 -p tcp -e 1040 -c 1 -i 6 -a 1 -x {0.0 2.0 3 ------- null}
h -t 0.54464 -s 0 -d 2 -p tcp -e 1040 -c 1 -i 6 -a 1 -x {0.0 2.0 -1 ------- null}
+ -t 0.54464 -s 0 -d 2 -p tcp -e 1040 -c 1 -i 7 -a 1 -x {0.0 2.0 4 ------- null}
r -t 0.5488 -s 2 -d 0 -p ack -e 40 -c 1 -i 5 -a 1 -x {2.0 0.0 2 ------- null}
+ -t 0.5488 -s 0 -d 2 -p tcp -e 1040 -c 1 -i 8 -a 1 -x {0.0 2.0 5 ------- null}
+ -t 0.5488 -s 0 -d 2 -p tcp -e 1040 -c 1 -i 9 -a 1 -x {0.0 2.0 6 ------- null}
- -t 0.5488 -s 0 -d 2 -p tcp -e 1040 -c 1 -i 7 -a 1 -x {0.0 2.0 4 ------- null}
h -t 0.5488 -s 0 -d 2 -p tcp -e 1040 -c 1 -i 7 -a 1 -x {0.0 2.0 -1 ------- null}
- -t 0.55296 -s 0 -d 2 -p tcp -e 1040 -c 1 -i 8 -a 1 -x {0.0 2.0 5 ------- null}
h -t 0.55296 -s 0 -d 2 -p tcp -e 1040 -c 1 -i 8 -a 1 -x {0.0 2.0 -1 ------- null}
- -t 0.55712 -s 0 -d 2 -p tcp -e 1040 -c 1 -i 9 -a 1 -x {0.0 2.0 6 ------- null}
h -t 0.55712 -s 0 -d 2 -p tcp -e 1040 -c 1 -i 9 -a 1 -x {0.0 2.0 -1 ------- null}
r -t 0.5588 -s 0 -d 2 -p tcp -e 1040 -c 1 -i 6 -a 1 -x {0.0 2.0 3 ------- null}
+ -t 0.5588 -s 2 -d 0 -p ack -e 40 -c 1 -i 10 -a 1 -x {2.0 0.0 3 ------- null}
- -t 0.5588 -s 2 -d 0 -p ack -e 40 -c 1 -i 10 -a 1 -x {2.0 0.0 3 ------- null}
h -t 0.5588 -s 2 -d 0 -p ack -e 40 -c 1 -i 10 -a 1 -x {2.0 0.0 -1 ------- null}
r -t 0.56296 -s 0 -d 2 -p tcp -e 1040 -c 1 -i 7 -a 1 -x {0.0 2.0 4 ------- null}
+ -t 0.56296 -s 2 -d 0 -p ack -e 40 -c 1 -i 11 -a 1 -x {2.0 0.0 4 ------- null}
- -t 0.56296 -s 2 -d 0 -p ack -e 40 -c 1 -i 11 -a 1 -x {2.0 0.0 4 ------- null}
h -t 0.56296 -s 2 -d 0 -p ack -e 40 -c 1 -i 11 -a 1 -x {2.0 0.0 -1 ------- null}
r -t 0.56712 -s 0 -d 2 -p tcp -e 1040 -c 1 -i 8 -a 1 -x {0.0 2.0 5 ------- null}
+ -t 0.56712 -s 2 -d 0 -p ack -e 40 -c 1 -i 12 -a 1 -x {2.0 0.0 5 ------- null}
- -t 0.56712 -s 2 -d 0 -p ack -e 40 -c 1 -i 12 -a 1 -x {2.0 0.0 5 ------- null}
h -t 0.56712 -s 2 -d 0 -p ack -e 40 -c 1 -i 12 -a 1 -x {2.0 0.0 -1 ------- null}
r -t 0.56896 -s 2 -d 0 -p ack -e 40 -c 1 -i 10 -a 1 -x {2.0 0.0 3 ------- null}
+ -t 0.56896 -s 0 -d 2 -p tcp -e 1040 -c 1 -i 13 -a 1 -x {0.0 2.0 7 ------- null}
- -t 0.56896 -s 0 -d 2 -p tcp -e 1040 -c 1 -i 13 -a 1 -x {0.0 2.0 7 ------- null}
h -t 0.56896 -s 0 -d 2 -p tcp -e 1040 -c 1 -i 13 -a 1 -x {0.0 2.0 -1 ------- null}
+ -t 0.56896 -s 0 -d 2 -p tcp -e 1040 -c 1 -i 14 -a 1 -x {0.0 2.0 8 ------- null}
r -t 0.57128 -s 0 -d 2 -p tcp -e 1040 -c 1 -i 9 -a 1 -x {0.0 2.0 6 ------- null}
+ -t 0.57128 -s 2 -d 0 -p ack -e 40 -c 1 -i 15 -a 1 -x {2.0 0.0 6 ------- null}
- -t 0.57128 -s 2 -d 0 -p ack -e 40 -c 1 -i 15 -a 1 -x {2.0 0.0 6 ------- null}
h -t 0.57128 -s 2 -d 0 -p ack -e 40 -c 1 -i 15 -a 1 -x {2.0 0.0 -1 ------- null}
r -t 0.57312 -s 2 -d 0 -p ack -e 40 -c 1 -i 11 -a 1 -x {2.0 0.0 4 ------- null}
+ -t 0.57312 -s 0 -d 2 -p tcp -e 1040 -c 1 -i 16 -a 1 -x {0.0 2.0 9 ------- null}
+ -t 0.57312 -s 0 -d 2 -p tcp -e 1040 -c 1 -i 17 -a 1 -x {0.0 2.0 10 ------- null}
- -t 0.57312 -s 0 -d 2 -p tcp -e 1040 -c 1 -i 14 -a 1 -x {0.0 2.0 8 ------- null}
h -t 0.57312 -s 0 -d 2 -p tcp -e 1040 -c 1 -i 14 -a 1 -x {0.0 2.0 -1 ------- null}
r -t 0.57728 -s 2 -d 0 -p ack -e 40 -c 1 -i 12 -a 1 -x {2.0 0.0 5 ------- null}
+ -t 0.57728 -s 0 -d 2 -p tcp -e 1040 -c 1 -i 18 -a 1 -x {0.0 2.0 11 ------- null}
+ -t 0.57728 -s 0 -d 2 -p tcp -e 1040 -c 1 -i 19 -a 1 -x {0.0 2.0 12 ------- null}
- -t 0.57728 -s 0 -d 2 -p tcp -e 1040 -c 1 -i 16 -a 1 -x {0.0 2.0 9 ------- null}
h -t 0.57728 -s 0 -d 2 -p tcp -e 1040 -c 1 -i 16 -a 1 -x {0.0 2.0 -1 ------- null}
r -t 0.58144 -s 2 -d 0 -p ack -e 40 -c 1 -i 15 -a 1 -x {2.0 0.0 6 ------- null}
+ -t 0.58144 -s 0 -d 2 -p tcp -e 1040 -c 1 -i 20 -a 1 -x {0.0 2.0 13 ------- null}
+ -t 0.58144 -s 0 -d 2 -p tcp -e 1040 -c 1 -i 21 -a 1 -x {0.0 2.0 14 ------- null}
- -t 0.58144 -s 0 -d 2 -p tcp -e 1040 -c 1 -i 17 -a 1 -x {0.0 2.0 10 ------- null}
h -t 0.58144 -s 0 -d 2 -p tcp -e 1040 -c 1 -i 17 -a 1 -x {0.0 2.0 -1 ------- null}
r -t 0.58312 -s 0 -d 2 -p tcp -e 1040 -c 1 -i 13 -a 1 -x {0.0 2.0 7 ------- null}
+ -t 0.58312 -s 2 -d 0 -p ack -e 40 -c 1 -i 22 -a 1 -x {2.0 0.0 7 ------- null}
- -t 0.58312 -s 2 -d 0 -p ack -e 40 -c 1 -i 22 -a 1 -x {2.0 0.0 7 ------- null}
h -t 0.58312 -s 2 -d 0 -p ack -e 40 -c 1 -i 22 -a 1 -x {2.0 0.0 -1 ------- null}
- -t 0.5856 -s 0 -d 2 -p tcp -e 1040 -c 1 -i 18 -a 1 -x {0.0 2.0 11 ------- null}
h -t 0.5856 -s 0 -d 2 -p tcp -e 1040 -c 1 -i 18 -a 1 -x {0.0 2.0 -1 ------- null}
r -t 0.58728 -s 0 -d 2 -p tcp -e 1040 -c 1 -i 14 -a 1 -x {0.0 2.0 8 ------- null}
+ -t 0.58728 -s 2 -d 0 -p ack -e 40 -c 1 -i 23 -a 1 -x {2.0 0.0 8 ------- null}
- -t 0.58728 -s 2 -d 0 -p ack -e 40 -c 1 -i 23 -a 1 -x {2.0 0.0 8 ------- null}
h -t 0.58728 -s 2 -d 0 -p ack -e 40 -c 1 -i 23 -a 1 -x {2.0 0.0 -1 ------- null}
- -t 0.58976 -s 0 -d 2 -p tcp -e 1040 -c 1 -i 19 -a 1 -x {0.0 2.0 12 ------- null}
h -t 0.58976 -s 0 -d 2 -p tcp -e 1040 -c 1 -i 19 -a 1 -x {0.0 2.0 -1 ------- null}
r -t 0.59144 -s 0 -d 2 -p tcp -e 1040 -c 1 -i 16 -a 1 -x {0.0 2.0 9 ------- null}
+ -t 0.59144 -s 2 -d 0 -p ack -e 40 -c 1 -i 24 -a 1 -x {2.0 0.0 9 ------- null}
- -t 0.59144 -s 2 -d 0 -p ack -e 40 -c 1 -i 24 -a 1 -x {2.0 0.0 9 ------- null}
h -t 0.59144 -s 2 -d 0 -p ack -e 40 -c 1 -i 24 -a 1 -x {2.0 0.0 -1 ------- null}
r -t 0.59328 -s 2 -d 0 -p ack -e 40 -c 1 -i 22 -a 1 -x {2.0 0.0 7 ------- null}
+ -t 0.59328 -s 0 -d 2 -p tcp -e 1040 -c 1 -i 25 -a 1 -x {0.0 2.0 15 ------- null}
+ -t 0.59328 -s 0 -d 2 -p tcp -e 1040 -c 1 -i 26 -a 1 -x {0.0 2.0 16 ------- null}
- -t 0.59392 -s 0 -d 2 -p tcp -e 1040 -c 1 -i 20 -a 1 -x {0.0 2.0 13 ------- null}
h -t 0.59392 -s 0 -d 2 -p tcp -e 1040 -c 1 -i 20 -a 1 -x {0.0 2.0 -1 ------- null}
r -t 0.5956 -s 0 -d 2 -p tcp -e 1040 -c 1 -i 17 -a 1 -x {0.0 2.0 10 ------- null}
+ -t 0.5956 -s 2 -d 0 -p ack -e 40 -c 1 -i 27 -a 1 -x {2.0 0.0 10 ------- null}
- -t 0.5956 -s 2 -d 0 -p ack -e 40 -c 1 -i 27 -a 1 -x {2.0 0.0 10 ------- null}
h -t 0.5956 -s 2 -d 0 -p ack -e 40 -c 1 -i 27 -a 1 -x {2.0 0.0 -1 ------- null}
r -t 0.59744 -s 2 -d 0 -p ack -e 40 -c 1 -i 23 -a 1 -x {2.0 0.0 8 ------- null}
+ -t 0.59744 -s 0 -d 2 -p tcp -e 1040 -c 1 -i 28 -a 1 -x {0.0 2.0 17 ------- null}
+ -t 0.59744 -s 0 -d 2 -p tcp -e 1040 -c 1 -i 29 -a 1 -x {0.0 2.0 18 ------- null}
- -t 0.59808 -s 0 -d 2 -p tcp -e 1040 -c 1 -i 21 -a 1 -x {0.0 2.0 14 ------- null}
h -t 0.59808 -s 0 -d 2 -p tcp -e 1040 -c 1 -i 21 -a 1 -x {0.0 2.0 -1 ------- null}
r -t 0.59976 -s 0 -d 2 -p tcp -e 1040 -c 1 -i 18 -a 1 -x {0.0 2.0 11 ------- null}
+ -t 0.59976 -s 2 -d 0 -p ack -e 40 -c 1 -i 30 -a 1 -x {2.0 0.0 11 ------- null}
- -t 0.59976 -s 2 -d 0 -p ack -e 40 -c 1 -i 30 -a 1 -x {2.0 0.0 11 ------- null}
h -t 0.59976 -s 2 -d 0 -p ack -e 40 -c 1 -i 30 -a 1 -x {2.0 0.0 -1 ------- null}
r -t 0.6016 -s 2 -d 0 -p ack -e 40 -c 1 -i 24 -a 1 -x {2.0 0.0 9 ------- null}
+ -t 0.6016 -s 0 -d 2 -p tcp -e 1040 -c 1 -i 31 -a 1 -x {0.0 2.0 19 ------- null}
+ -t 0.6016 -s 0 -d 2 -p tcp -e 1040 -c 1 -i 32 -a 1 -x {0.0 2.0 20 ------- null}
- -t 0.60224 -s 0 -d 2 -p tcp -e 1040 -c 1 -i 25 -a 1 -x {0.0 2.0 15 ------- null}
h -t 0.60224 -s 0 -d 2 -p tcp -e 1040 -c 1 -i 25 -a 1 -x {0.0 2.0 -1 ------- null}
r -t 0.60392 -s 0 -d 2 -p tcp -e 1040 -c 1 -i 19 -a 1 -x {0.0 2.0 12 ------- null}
+ -t 0.60392 -s 2 -d 0 -p ack -e 40 -c 1 -i 33 -a 1 -x {2.0 0.0 12 ------- null}
- -t 0.60392 -s 2 -d 0 -p ack -e 40 -c 1 -i 33 -a 1 -x {2.0 0.0 12 ------- null}
h -t 0.60392 -s 2 -d 0 -p ack -e 40 -c 1 -i 33 -a 1 -x {2.0 0.0 -1 ------- null}
r -t 0.60576 -s 2 -d 0 -p ack -e 40 -c 1 -i 27 -a 1 -x {2.0 0.0 10 ------- null}
+ -t 0.60576 -s 0 -d 2 -p tcp -e 1040 -c 1 -i 34 -a 1 -x {0.0 2.0 21 ------- null}
+ -t 0.60576 -s 0 -d 2 -p tcp -e 1040 -c 1 -i 35 -a 1 -x {0.0 2.0 22 ------- null}
- -t 0.6064 -s 0 -d 2 -p tcp -e 1040 -c 1 -i 26 -a 1 -x {0.0 2.0 16 ------- null}
h -t 0.6064 -s 0 -d 2 -p tcp -e 1040 -c 1 -i 26 -a 1 -x {0.0 2.0 -1 ------- null}
r -t 0.60808 -s 0 -d 2 -p tcp -e 1040 -c 1 -i 20 -a 1 -x {0.0 2.0 13 ------- null}
+ -t 0.60808 -s 2 -d 0 -p ack -e 40 -c 1 -i 36 -a 1 -x {2.0 0.0 13 ------- null}
- -t 0.60808 -s 2 -d 0 -p ack -e 40 -c 1 -i 36 -a 1 -x {2.0 0.0 13 ------- null}
h -t 0.60808 -s 2 -d 0 -p ack -e 40 -c 1 -i 36 -a 1 -x {2.0 0.0 -1 ------- null}
r -t 0.60992 -s 2 -d 0 -p ack -e 40 -c 1 -i 30 -a 1 -x {2.0 0.0 11 ------- null}
+ -t 0.60992 -s 0 -d 2 -p tcp -e 1040 -c 1 -i 37 -a 1 -x {0.0 2.0 23 ------- null}
+ -t 0.60992 -s 0 -d 2 -p tcp -e 1040 -c 1 -i 38 -a 1 -x {0.0 2.0 24 ------- null}
- -t 0.61056 -s 0 -d 2 -p tcp -e 1040 -c 1 -i 28 -a 1 -x {0.0 2.0 17 ------- null}
h -t 0.61056 -s 0 -d 2 -p tcp -e 1040 -c 1 -i 28 -a 1 -x {0.0 2.0 -1 ------- null}
r -t 0.61224 -s 0 -d 2 -p tcp -e 1040 -c 1 -i 21 -a 1 -x {0.0 2.0 14 ------- null}
+ -t 0.61224 -s 2 -d 0 -p ack -e 40 -c 1 -i 39 -a 1 -x {2.0 0.0 14 ------- null}
- -t 0.61224 -s 2 -d 0 -p ack -e 40 -c 1 -i 39 -a 1 -x {2.0 0.0 14 ------- null}
h -t 0.61224 -s 2 -d 0 -p ack -e 40 -c 1 -i 39 -a 1 -x {2.0 0.0 -1 ------- null}
r -t 0.61408 -s 2 -d 0 -p ack -e 40 -c 1 -i 33 -a 1 -x {2.0 0.0 12 ------- null}
+ -t 0.61408 -s 0 -d 2 -p tcp -e 1040 -c 1 -i 40 -a 1 -x {0.0 2.0 25 ------- null}
+ -t 0.61408 -s 0 -d 2 -p tcp -e 1040 -c 1 -i 41 -a 1 -x {0.0 2.0 26 ------- null}
- -t 0.61472 -s 0 -d 2 -p tcp -e 1040 -c 1 -i 29 -a 1 -x {0.0 2.0 18 ------- null}
h -t 0.61472 -s 0 -d 2 -p tcp -e 1040 -c 1 -i 29 -a 1 -x {0.0 2.0 -1 ------- null}
r -t 0.6164 -s 0 -d 2 -p tcp -e 1040 -c 1 -i 25 -a 1 -x {0.0 2.0 15 ------- null}
+ -t 0.6164 -s 2 -d 0 -p ack -e 40 -c 1 -i 42 -a 1 -x {2.0 0.0 15 ------- null}
- -t 0.6164 -s 2 -d 0 -p ack -e 40 -c 1 -i 42 -a 1 -x {2.0 0.0 15 ------- null}
h -t 0.6164 -s 2 -d 0 -p ack -e 40 -c 1 -i 42 -a 1 -x {2.0 0.0 -1 ------- null}
r -t 0.61824 -s 2 -d 0 -p ack -e 40 -c 1 -i 36 -a 1 -x {2.0 0.0 13 ------- null}
+ -t 0.61824 -s 0 -d 2 -p tcp -e 1040 -c 1 -i 43 -a 1 -x {0.0 2.0 27 ------- null}
+ -t 0.61824 -s 0 -d 2 -p tcp -e 1040 -c 1 -i 44 -a 1 -x {0.0 2.0 28 ------- null}
- -t 0.61888 -s 0 -d 2 -p tcp -e 1040 -c 1 -i 31 -a 1 -x {0.0 2.0 19 ------- null}
h -t 0.61888 -s 0 -d 2 -p tcp -e 1040 -c 1 -i 31 -a 1 -x {0.0 2.0 -1 ------- null}
r -t 0.62056 -s 0 -d 2 -p tcp -e 1040 -c 1 -i 26 -a 1 -x {0.0 2.0 16 ------- null}
+ -t 0.62056 -s 2 -d 0 -p ack -e 40 -c 1 -i 45 -a 1 -x {2.0 0.0 16 ------- null}
- -t 0.62056 -s 2 -d 0 -p ack -e 40 -c 1 -i 45 -a 1 -x {2.0 0.0 16 ------- null}
h -t 0.62056 -s 2 -d 0 -p ack -e 40 -c 1 -i 45 -a 1 -x {2.0 0.0 -1 ------- null}
r -t 0.6224 -s 2 -d 0 -p ack -e 40 -c 1 -i 39 -a 1 -x {2.0 0.0 14 ------- null}
+ -t 0.6224 -s 0 -d 2 -p tcp -e 1040 -c 1 -i 46 -a 1 -x {0.0 2.0 29 ------- null}
+ -t 0.6224 -s 0 -d 2 -p tcp -e 1040 -c 1 -i 47 -a 1 -x {0.0 2.0 30 ------- null}
- -t 0.62304 -s 0 -d 2 -p tcp -e 1040 -c 1 -i 32 -a 1 -x {0.0 2.0 20 ------- null}
h -t 0.62304 -s 0 -d 2 -p tcp -e 1040 -c 1 -i 32 -a 1 -x {0.0 2.0 -1 ------- null}
r -t 0.62472 -s 0 -d 2 -p tcp -e 1040 -c 1 -i 28 -a 1 -x {0.0 2.0 17 ------- null}
+ -t 0.62472 -s 2 -d 0 -p ack -e 40 -c 1 -i 48 -a 1 -x {2.0 0.0 17 ------- null}
- -t 0.62472 -s 2 -d 0 -p ack -e 40 -c 1 -i 48 -a 1 -x {2.0 0.0 17 ------- null}
h -t 0.62472 -s 2 -d 0 -p ack -e 40 -c 1 -i 48 -a 1 -x {2.0 0.0 -1 ------- null}
r -t 0.62656 -s 2 -d 0 -p ack -e 40 -c 1 -i 42 -a 1 -x {2.0 0.0 15 ------- null}
+ -t 0.62656 -s 0 -d 2 -p tcp -e 1040 -c 1 -i 49 -a 1 -x {0.0 2.0 31 ------- null}
+ -t 0.62656 -s 0 -d 2 -p tcp -e 1040 -c 1 -i 50 -a 1 -x {0.0 2.0 32 ------- null}
- -t 0.6272 -s 0 -d 2 -p tcp -e 1040 -c 1 -i 34 -a 1 -x {0.0 2.0 21 ------- null}
h -t 0.6272 -s 0 -d 2 -p tcp -e 1040 -c 1 -i 34 -a 1 -x {0.0 2.0 -1 ------- null}
r -t 0.62888 -s 0 -d 2 -p tcp -e 1040 -c 1 -i 29 -a 1 -x {0.0 2.0 18 ------- null}
+ -t 0.62888 -s 2 -d 0 -p ack -e 40 -c 1 -i 51 -a 1 -x {2.0 0.0 18 ------- null}
- -t 0.62888 -s 2 -d 0 -p ack -e 40 -c 1 -i 51 -a 1 -x {2.0 0.0 18 ------- null}
h -t 0.62888 -s 2 -d 0 -p ack -e 40 -c 1 -i 51 -a 1 -x {2.0 0.0 -1 ------- null}
r -t 0.63072 -s 2 -d 0 -p ack -e 40 -c 1 -i 45 -a 1 -x {2.0 0.0 16 ------- null}
+ -t 0.63072 -s 0 -d 2 -p tcp -e 1040 -c 1 -i 52 -a 1 -x {0.0 2.0 33 ------- null}
+ -t 0.63072 -s 0 -d 2 -p tcp -e 1040 -c 1 -i 53 -a 1 -x {0.0 2.0 34 ------- null}
- -t 0.63136 -s 0 -d 2 -p tcp -e 1040 -c 1 -i 35 -a 1 -x {0.0 2.0 22 ------- null}
h -t 0.63136 -s 0 -d 2 -p tcp -e 1040 -c 1 -i 35 -a 1 -x {0.0 2.0 -1 ------- null}
r -t 0.63304 -s 0 -d 2 -p tcp -e 1040 -c 1 -i 31 -a 1 -x {0.0 2.0 19 ------- null}
+ -t 0.63304 -s 2 -d 0 -p ack -e 40 -c 1 -i 54 -a 1 -x {2.0 0.0 19 ------- null}
- -t 0.63304 -s 2 -d 0 -p ack -e 40 -c 1 -i 54 -a 1 -x {2.0 0.0 19 ------- null}
h -t 0.63304 -s 2 -d 0 -p ack -e 40 -c 1 -i 54 -a 1 -x {2.0 0.0 -1 ------- null}
r -t 0.63488 -s 2 -d 0 -p ack -e 40 -c 1 -i 48 -a 1 -x {2.0 0.0 17 ------- null}
+ -t 0.63488 -s 0 -d 2 -p tcp -e 1040 -c 1 -i 55 -a 1 -x {0.0 2.0 35 ------- null}
+ -t 0.63488 -s 0 -d 2 -p tcp -e 1040 -c 1 -i 56 -a 1 -x {0.0 2.0 36 ------- null}
- -t 0.635520000000001 -s 0 -d 2 -p tcp -e 1040 -c 1 -i 37 -a 1 -x {0.0 2.0 23 ------- null}
h -t 0.635520000000001 -s 0 -d 2 -p tcp -e 1040 -c 1 -i 37 -a 1 -x {0.0 2.0 -1 ------- null}
r -t 0.6372 -s 0 -d 2 -p tcp -e 1040 -c 1 -i 32 -a 1 -x {0.0 2.0 20 ------- null}
+ -t 0.6372 -s 2 -d 0 -p ack -e 40 -c 1 -i 57 -a 1 -x {2.0 0.0 20 ------- null}
- -t 0.6372 -s 2 -d 0 -p ack -e 40 -c 1 -i 57 -a 1 -x {2.0 0.0 20 ------- null}
h -t 0.6372 -s 2 -d 0 -p ack -e 40 -c 1 -i 57 -a 1 -x {2.0 0.0 -1 ------- null}
r -t 0.63904 -s 2 -d 0 -p ack -e 40 -c 1 -i 51 -a 1 -x {2.0 0.0 18 ------- null}
+ -t 0.63904 -s 0 -d 2 -p tcp -e 1040 -c 1 -i 58 -a 1 -x {0.0 2.0 37 ------- null}
+ -t 0.63904 -s 0 -d 2 -p tcp -e 1040 -c 1 -i 59 -a 1 -x {0.0 2.0 38 ------- null}
- -t 0.639680000000001 -s 0 -d 2 -p tcp -e 1040 -c 1 -i 38 -a 1 -x {0.0 2.0 24 ------- null}
h -t 0.639680000000001 -s 0 -d 2 -p tcp -e 1040 -c 1 -i 38 -a 1 -x {0.0 2.0 -1 ------- null}
r -t 0.64136 -s 0 -d 2 -p tcp -e 1040 -c 1 -i 34 -a 1 -x {0.0 2.0 21 ------- null}
+ -t 0.64136 -s 2 -d 0 -p ack -e 40 -c 1 -i 60 -a 1 -x {2.0 0.0 21 ------- null}
- -t 0.64136 -s 2 -d 0 -p ack -e 40 -c 1 -i 60 -a 1 -x {2.0 0.0 21 ------- null}
h -t 0.64136 -s 2 -d 0 -p ack -e 40 -c 1 -i 60 -a 1 -x {2.0 0.0 -1 ------- null}
r -t 0.6432 -s 2 -d 0 -p ack -e 40 -c 1 -i 54 -a 1 -x {2.0 0.0 19 ------- null}
+ -t 0.6432 -s 0 -d 2 -p tcp -e 1040 -c 1 -i 61 -a 1 -x {0.0 2.0 39 ------- null}
- -t 0.643840000000001 -s 0 -d 2 -p tcp -e 1040 -c 1 -i 40 -a 1 -x {0.0 2.0 25 ------- null}
h -t 0.643840000000001 -s 0 -d 2 -p tcp -e 1040 -c 1 -i 40 -a 1 -x {0.0 2.0 -1 ------- null}
r -t 0.64552 -s 0 -d 2 -p tcp -e 1040 -c 1 -i 35 -a 1 -x {0.0 2.0 22 ------- null}
+ -t 0.64552 -s 2 -d 0 -p ack -e 40 -c 1 -i 62 -a 1 -x {2.0 0.0 22 ------- null}
- -t 0.64552 -s 2 -d 0 -p ack -e 40 -c 1 -i 62 -a 1 -x {2.0 0.0 22 ------- null}
h -t 0.64552 -s 2 -d 0 -p ack -e 40 -c 1 -i 62 -a 1 -x {2.0 0.0 -1 ------- null}
r -t 0.64736 -s 2 -d 0 -p ack -e 40 -c 1 -i 57 -a 1 -x {2.0 0.0 20 ------- null}
+ -t 0.64736 -s 0 -d 2 -p tcp -e 1040 -c 1 -i 63 -a 1 -x {0.0 2.0 40 ------- null}
- -t 0.648000000000001 -s 0 -d 2 -p tcp -e 1040 -c 1 -i 41 -a 1 -x {0.0 2.0 26 ------- null}
h -t 0.648000000000001 -s 0 -d 2 -p tcp -e 1040 -c 1 -i 41 -a 1 -x {0.0 2.0 -1 ------- null}
r -t 0.64968 -s 0 -d 2 -p tcp -e 1040 -c 1 -i 37 -a 1 -x {0.0 2.0 23 ------- null}
+ -t 0.64968 -s 2 -d 0 -p ack -e 40 -c 1 -i 64 -a 1 -x {2.0 0.0 23 ------- null}
- -t 0.64968 -s 2 -d 0 -p ack -e 40 -c 1 -i 64 -a 1 -x {2.0 0.0 23 ------- null}
h -t 0.64968 -s 2 -d 0 -p ack -e 40 -c 1 -i 64 -a 1 -x {2.0 0.0 -1 ------- null}
r -t 0.65152 -s 2 -d 0 -p ack -e 40 -c 1 -i 60 -a 1 -x {2.0 0.0 21 ------- null}
+ -t 0.65152 -s 0 -d 2 -p tcp -e 1040 -c 1 -i 65 -a 1 -x {0.0 2.0 41 ------- null}
- -t 0.652160000000001 -s 0 -d 2 -p tcp -e 1040 -c 1 -i 43 -a 1 -x {0.0 2.0 27 ------- null}
h -t 0.652160000000001 -s 0 -d 2 -p tcp -e 1040 -c 1 -i 43 -a 1 -x {0.0 2.0 -1 ------- null}
r -t 0.653840000000001 -s 0 -d 2 -p tcp -e 1040 -c 1 -i 38 -a 1 -x {0.0 2.0 24 ------- null}
+ -t 0.653840000000001 -s 2 -d 0 -p ack -e 40 -c 1 -i 66 -a 1 -x {2.0 0.0 24 ------- null}
- -t 0.653840000000001 -s 2 -d 0 -p ack -e 40 -c 1 -i 66 -a 1 -x {2.0 0.0 24 ------- null}
h -t 0.653840000000001 -s 2 -d 0 -p ack -e 40 -c 1 -i 66 -a 1 -x {2.0 0.0 -1 ------- null}
r -t 0.65568 -s 2 -d 0 -p ack -e 40 -c 1 -i 62 -a 1 -x {2.0 0.0 22 ------- null}
+ -t 0.65568 -s 0 -d 2 -p tcp -e 1040 -c 1 -i 67 -a 1 -x {0.0 2.0 42 ------- null}
- -t 0.656320000000001 -s 0 -d 2 -p tcp -e 1040 -c 1 -i 44 -a 1 -x {0.0 2.0 28 ------- null}
h -t 0.656320000000001 -s 0 -d 2 -p tcp -e 1040 -c 1 -i 44 -a 1 -x {0.0 2.0 -1 ------- null}
r -t 0.658000000000001 -s 0 -d 2 -p tcp -e 1040 -c 1 -i 40 -a 1 -x {0.0 2.0 25 ------- null}
+ -t 0.658000000000001 -s 2 -d 0 -p ack -e 40 -c 1 -i 68 -a 1 -x {2.0 0.0 25 ------- null}
- -t 0.658000000000001 -s 2 -d 0 -p ack -e 40 -c 1 -i 68 -a 1 -x {2.0 0.0 25 ------- null}
h -t 0.658000000000001 -s 2 -d 0 -p ack -e 40 -c 1 -i 68 -a 1 -x {2.0 0.0 -1 ------- null}
r -t 0.65984 -s 2 -d 0 -p ack -e 40 -c 1 -i 64 -a 1 -x {2.0 0.0 23 ------- null}
+ -t 0.65984 -s 0 -d 2 -p tcp -e 1040 -c 1 -i 69 -a 1 -x {0.0 2.0 43 ------- null}
- -t 0.660480000000001 -s 0 -d 2 -p tcp -e 1040 -c 1 -i 46 -a 1 -x {0.0 2.0 29 ------- null}
h -t 0.660480000000001 -s 0 -d 2 -p tcp -e 1040 -c 1 -i 46 -a 1 -x {0.0 2.0 -1 ------- null}
r -t 0.662160000000001 -s 0 -d 2 -p tcp -e 1040 -c 1 -i 41 -a 1 -x {0.0 2.0 26 ------- null}
+ -t 0.662160000000001 -s 2 -d 0 -p ack -e 40 -c 1 -i 70 -a 1 -x {2.0 0.0 26 ------- null}
- -t 0.662160000000001 -s 2 -d 0 -p ack -e 40 -c 1 -i 70 -a 1 -x {2.0 0.0 26 ------- null}
h -t 0.662160000000001 -s 2 -d 0 -p ack -e 40 -c 1 -i 70 -a 1 -x {2.0 0.0 -1 ------- null}
r -t 0.664 -s 2 -d 0 -p ack -e 40 -c 1 -i 66 -a 1 -x {2.0 0.0 24 ------- null}
+ -t 0.664 -s 0 -d 2 -p tcp -e 1040 -c 1 -i 71 -a 1 -x {0.0 2.0 44 ------- null}
- -t 0.664640000000001 -s 0 -d 2 -p tcp -e 1040 -c 1 -i 47 -a 1 -x {0.0 2.0 30 ------- null}
h -t 0.664640000000001 -s 0 -d 2 -p tcp -e 1040 -c 1 -i 47 -a 1 -x {0.0 2.0 -1 ------- null}
r -t 0.666320000000001 -s 0 -d 2 -p tcp -e 1040 -c 1 -i 43 -a 1 -x {0.0 2.0 27 ------- null}
+ -t 0.666320000000001 -s 2 -d 0 -p ack -e 40 -c 1 -i 72 -a 1 -x {2.0 0.0 27 ------- null}
- -t 0.666320000000001 -s 2 -d 0 -p ack -e 40 -c 1 -i 72 -a 1 -x {2.0 0.0 27 ------- null}
h -t 0.666320000000001 -s 2 -d 0 -p ack -e 40 -c 1 -i 72 -a 1 -x {2.0 0.0 -1 ------- null}
r -t 0.668160000000001 -s 2 -d 0 -p ack -e 40 -c 1 -i 68 -a 1 -x {2.0 0.0 25 ------- null}
+ -t 0.668160000000001 -s 0 -d 2 -p tcp -e 1040 -c 1 -i 73 -a 1 -x {0.0 2.0 45 ------- null}
- -t 0.668800000000001 -s 0 -d 2 -p tcp -e 1040 -c 1 -i 49 -a 1 -x {0.0 2.0 31 ------- null}
h -t 0.668800000000001 -s 0 -d 2 -p tcp -e 1040 -c 1 -i 49 -a 1 -x {0.0 2.0 -1 ------- null}
r -t 0.670480000000001 -s 0 -d 2 -p tcp -e 1040 -c 1 -i 44 -a 1 -x {0.0 2.0 28 ------- null}
+ -t 0.670480000000001 -s 2 -d 0 -p ack -e 40 -c 1 -i 74 -a 1 -x {2.0 0.0 28 ------- null}
- -t 0.670480000000001 -s 2 -d 0 -p ack -e 40 -c 1 -i 74 -a 1 -x {2.0 0.0 28 ------- null}
h -t 0.670480000000001 -s 2 -d 0 -p ack -e 40 -c 1 -i 74 -a 1 -x {2.0 0.0 -1 ------- null}
r -t 0.672320000000001 -s 2 -d 0 -p ack -e 40 -c 1 -i 70 -a 1 -x {2.0 0.0 26 ------- null}
+ -t 0.672320000000001 -s 0 -d 2 -p tcp -e 1040 -c 1 -i 75 -a 1 -x {0.0 2.0 46 ------- null}
- -t 0.672960000000001 -s 0 -d 2 -p tcp -e 1040 -c 1 -i 50 -a 1 -x {0.0 2.0 32 ------- null}
h -t 0.672960000000001 -s 0 -d 2 -p tcp -e 1040 -c 1 -i 50 -a 1 -x {0.0 2.0 -1 ------- null}
r -t 0.674640000000001 -s 0 -d 2 -p tcp -e 1040 -c 1 -i 46 -a 1 -x {0.0 2.0 29 ------- null}
+ -t 0.674640000000001 -s 2 -d 0 -p ack -e 40 -c 1 -i 76 -a 1 -x {2.0 0.0 29 ------- null}
- -t 0.674640000000001 -s 2 -d 0 -p ack -e 40 -c 1 -i 76 -a 1 -x {2.0 0.0 29 ------- null}
h -t 0.674640000000001 -s 2 -d 0 -p ack -e 40 -c 1 -i 76 -a 1 -x {2.0 0.0 -1 ------- null}
r -t 0.676480000000001 -s 2 -d 0 -p ack -e 40 -c 1 -i 72 -a 1 -x {2.0 0.0 27 ------- null}
+ -t 0.676480000000001 -s 0 -d 2 -p tcp -e 1040 -c 1 -i 77 -a 1 -x {0.0 2.0 47 ------- null}
- -t 0.677120000000001 -s 0 -d 2 -p tcp -e 1040 -c 1 -i 52 -a 1 -x {0.0 2.0 33 ------- null}
h -t 0.677120000000001 -s 0 -d 2 -p tcp -e 1040 -c 1 -i 52 -a 1 -x {0.0 2.0 -1 ------- null}
r -t 0.678800000000001 -s 0 -d 2 -p tcp -e 1040 -c 1 -i 47 -a 1 -x {0.0 2.0 30 ------- null}
+ -t 0.678800000000001 -s 2 -d 0 -p ack -e 40 -c 1 -i 78 -a 1 -x {2.0 0.0 30 ------- null}
- -t 0.678800000000001 -s 2 -d 0 -p ack -e 40 -c 1 -i 78 -a 1 -x {2.0 0.0 30 ------- null}
h -t 0.678800000000001 -s 2 -d 0 -p ack -e 40 -c 1 -i 78 -a 1 -x {2.0 0.0 -1 ------- null}
r -t 0.680640000000001 -s 2 -d 0 -p ack -e 40 -c 1 -i 74 -a 1 -x {2.0 0.0 28 ------- null}
+ -t 0.680640000000001 -s 0 -d 2 -p tcp -e 1040 -c 1 -i 79 -a 1 -x {0.0 2.0 48 ------- null}
- -t 0.681280000000001 -s 0 -d 2 -p tcp -e 1040 -c 1 -i 53 -a 1 -x {0.0 2.0 34 ------- null}
h -t 0.681280000000001 -s 0 -d 2 -p tcp -e 1040 -c 1 -i 53 -a 1 -x {0.0 2.0 -1 ------- null}
r -t 0.682960000000001 -s 0 -d 2 -p tcp -e 1040 -c 1 -i 49 -a 1 -x {0.0 2.0 31 ------- null}
+ -t 0.682960000000001 -s 2 -d 0 -p ack -e 40 -c 1 -i 80 -a 1 -x {2.0 0.0 31 ------- null}
- -t 0.682960000000001 -s 2 -d 0 -p ack -e 40 -c 1 -i 80 -a 1 -x {2.0 0.0 31 ------- null}
h -t 0.682960000000001 -s 2 -d 0 -p ack -e 40 -c 1 -i 80 -a 1 -x {2.0 0.0 -1 ------- null}
r -t 0.684800000000001 -s 2 -d 0 -p ack -e 40 -c 1 -i 76 -a 1 -x {2.0 0.0 29 ------- null}
+ -t 0.684800000000001 -s 0 -d 2 -p tcp -e 1040 -c 1 -i 81 -a 1 -x {0.0 2.0 49 ------- null}
- -t 0.685440000000001 -s 0 -d 2 -p tcp -e 1040 -c 1 -i 55 -a 1 -x {0.0 2.0 35 ------- null}
h -t 0.685440000000001 -s 0 -d 2 -p tcp -e 1040 -c 1 -i 55 -a 1 -x {0.0 2.0 -1 ------- null}
r -t 0.687120000000001 -s 0 -d 2 -p tcp -e 1040 -c 1 -i 50 -a 1 -x {0.0 2.0 32 ------- null}
+ -t 0.687120000000001 -s 2 -d 0 -p ack -e 40 -c 1 -i 82 -a 1 -x {2.0 0.0 32 ------- null}
- -t 0.687120000000001 -s 2 -d 0 -p ack -e 40 -c 1 -i 82 -a 1 -x {2.0 0.0 32 ------- null}
h -t 0.687120000000001 -s 2 -d 0 -p ack -e 40 -c 1 -i 82 -a 1 -x {2.0 0.0 -1 ------- null}
r -t 0.688960000000001 -s 2 -d 0 -p ack -e 40 -c 1 -i 78 -a 1 -x {2.0 0.0 30 ------- null}
+ -t 0.688960000000001 -s 0 -d 2 -p tcp -e 1040 -c 1 -i 83 -a 1 -x {0.0 2.0 50 ------- null}
- -t 0.689600000000001 -s 0 -d 2 -p tcp -e 1040 -c 1 -i 56 -a 1 -x {0.0 2.0 36 ------- null}
h -t 0.689600000000001 -s 0 -d 2 -p tcp -e 1040 -c 1 -i 56 -a 1 -x {0.0 2.0 -1 ------- null}
r -t 0.691280000000001 -s 0 -d 2 -p tcp -e 1040 -c 1 -i 52 -a 1 -x {0.0 2.0 33 ------- null}
+ -t 0.691280000000001 -s 2 -d 0 -p ack -e 40 -c 1 -i 84 -a 1 -x {2.0 0.0 33 ------- null}
- -t 0.691280000000001 -s 2 -d 0 -p ack -e 40 -c 1 -i 84 -a 1 -x {2.0 0.0 33 ------- null}
h -t 0.691280000000001 -s 2 -d 0 -p ack -e 40 -c 1 -i 84 -a 1 -x {2.0 0.0 -1 ------- null}
r -t 0.693120000000001 -s 2 -d 0 -p ack -e 40 -c 1 -i 80 -a 1 -x {2.0 0.0 31 ------- null}
+ -t 0.693120000000001 -s 0 -d 2 -p tcp -e 1040 -c 1 -i 85 -a 1 -x {0.0 2.0 51 ------- null}
- -t 0.693760000000001 -s 0 -d 2 -p tcp -e 1040 -c 1 -i 58 -a 1 -x {0.0 2.0 37 ------- null}
h -t 0.693760000000001 -s 0 -d 2 -p tcp -e 1040 -c 1 -i 58 -a 1 -x {0.0 2.0 -1 ------- null}
r -t 0.695440000000001 -s 0 -d 2 -p tcp -e 1040 -c 1 -i 53 -a 1 -x {0.0 2.0 34 ------- null}
+ -t 0.695440000000001 -s 2 -d 0 -p ack -e 40 -c 1 -i 86 -a 1 -x {2.0 0.0 34 ------- null}
- -t 0.695440000000001 -s 2 -d 0 -p ack -e 40 -c 1 -i 86 -a 1 -x {2.0 0.0 34 ------- null}
h -t 0.695440000000001 -s 2 -d 0 -p ack -e 40 -c 1 -i 86 -a 1 -x {2.0 0.0 -1 ------- null}
r -t 0.697280000000001 -s 2 -d 0 -p ack -e 40 -c 1 -i 82 -a 1 -x {2.0 0.0 32 ------- null}
+ -t 0.697280000000001 -s 0 -d 2 -p tcp -e 1040 -c 1 -i 87 -a 1 -x {0.0 2.0 52 ------- null}
- -t 0.697920000000001 -s 0 -d 2 -p tcp -e 1040 -c 1 -i 59 -a 1 -x {0.0 2.0 38 ------- null}
h -t 0.697920000000001 -s 0 -d 2 -p tcp -e 1040 -c 1 -i 59 -a 1 -x {0.0 2.0 -1 ------- null}
r -t 0.699600000000001 -s 0 -d 2 -p tcp -e 1040 -c 1 -i 55 -a 1 -x {0.0 2.0 35 ------- null}
+ -t 0.699600000000001 -s 2 -d 0 -p ack -e 40 -c 1 -i 88 -a 1 -x {2.0 0.0 35 ------- null}
- -t 0.699600000000001 -s 2 -d 0 -p ack -e 40 -c 1 -i 88 -a 1 -x {2.0 0.0 35 ------- null}
h -t 0.699600000000001 -s 2 -d 0 -p ack -e 40 -c 1 -i 88 -a 1 -x {2.0 0.0 -1 ------- null}
r -t 0.701440000000001 -s 2 -d 0 -p ack -e 40 -c 1 -i 84 -a 1 -x {2.0 0.0 33 ------- null}
+ -t 0.701440000000001 -s 0 -d 2 -p tcp -e 1040 -c 1 -i 89 -a 1 -x {0.0 2.0 53 ------- null}
- -t 0.702080000000001 -s 0 -d 2 -p tcp -e 1040 -c 1 -i 61 -a 1 -x {0.0 2.0 39 ------- null}
h -t 0.702080000000001 -s 0 -d 2 -p tcp -e 1040 -c 1 -i 61 -a 1 -x {0.0 2.0 -1 ------- null}
r -t 0.703760000000001 -s 0 -d 2 -p tcp -e 1040 -c 1 -i 56 -a 1 -x {0.0 2.0 36 ------- null}
+ -t 0.703760000000001 -s 2 -d 0 -p ack -e 40 -c 1 -i 90 -a 1 -x {2.0 0.0 36 ------- null}
- -t 0.703760000000001 -s 2 -d 0 -p ack -e 40 -c 1 -i 90 -a 1 -x {2.0 0.0 36 ------- null}
h -t 0.703760000000001 -s 2 -d 0 -p ack -e 40 -c 1 -i 90 -a 1 -x {2.0 0.0 -1 ------- null}
r -t 0.705600000000001 -s 2 -d 0 -p ack -e 40 -c 1 -i 86 -a 1 -x {2.0 0.0 34 ------- null}
+ -t 0.705600000000001 -s 0 -d 2 -p tcp -e 1040 -c 1 -i 91 -a 1 -x {0.0 2.0 54 ------- null}
- -t 0.706240000000001 -s 0 -d 2 -p tcp -e 1040 -c 1 -i 63 -a 1 -x {0.0 2.0 40 ------- null}
h -t 0.706240000000001 -s 0 -d 2 -p tcp -e 1040 -c 1 -i 63 -a 1 -x {0.0 2.0 -1 ------- null}
r -t 0.707920000000001 -s 0 -d 2 -p tcp -e 1040 -c 1 -i 58 -a 1 -x {0.0 2.0 37 ------- null}
+ -t 0.707920000000001 -s 2 -d 0 -p ack -e 40 -c 1 -i 92 -a 1 -x {2.0 0.0 37 ------- null}
- -t 0.707920000000001 -s 2 -d 0 -p ack -e 40 -c 1 -i 92 -a 1 -x {2.0 0.0 37 ------- null}
h -t 0.707920000000001 -s 2 -d 0 -p ack -e 40 -c 1 -i 92 -a 1 -x {2.0 0.0 -1 ------- null}
r -t 0.709760000000001 -s 2 -d 0 -p ack -e 40 -c 1 -i 88 -a 1 -x {2.0 0.0 35 ------- null}
+ -t 0.709760000000001 -s 0 -d 2 -p tcp -e 1040 -c 1 -i 93 -a 1 -x {0.0 2.0 55 ------- null}
- -t 0.710400000000001 -s 0 -d 2 -p tcp -e 1040 -c 1 -i 65 -a 1 -x {0.0 2.0 41 ------- null}
h -t 0.710400000000001 -s 0 -d 2 -p tcp -e 1040 -c 1 -i 65 -a 1 -x {0.0 2.0 -1 ------- null}
r -t 0.712080000000001 -s 0 -d 2 -p tcp -e 1040 -c 1 -i 59 -a 1 -x {0.0 2.0 38 ------- null}
+ -t 0.712080000000001 -s 2 -d 0 -p ack -e 40 -c 1 -i 94 -a 1 -x {2.0 0.0 38 ------- null}
- -t 0.712080000000001 -s 2 -d 0 -p ack -e 40 -c 1 -i 94 -a 1 -x {2.0 0.0 38 ------- null}
h -t 0.712080000000001 -s 2 -d 0 -p ack -e 40 -c 1 -i 94 -a 1 -x {2.0 0.0 -1 ------- null}
r -t 0.713920000000001 -s 2 -d 0 -p ack -e 40 -c 1 -i 90 -a 1 -x {2.0 0.0 36 ------- null}
+ -t 0.713920000000001 -s 0 -d 2 -p tcp -e 1040 -c 1 -i 95 -a 1 -x {0.0 2.0 56 ------- null}
- -t 0.714560000000002 -s 0 -d 2 -p tcp -e 1040 -c 1 -i 67 -a 1 -x {0.0 2.0 42 ------- null}
h -t 0.714560000000002 -s 0 -d 2 -p tcp -e 1040 -c 1 -i 67 -a 1 -x {0.0 2.0 -1 ------- null}
r -t 0.716240000000001 -s 0 -d 2 -p tcp -e 1040 -c 1 -i 61 -a 1 -x {0.0 2.0 39 ------- null}
+ -t 0.716240000000001 -s 2 -d 0 -p ack -e 40 -c 1 -i 96 -a 1 -x {2.0 0.0 39 ------- null}
- -t 0.716240000000001 -s 2 -d 0 -p ack -e 40 -c 1 -i 96 -a 1 -x {2.0 0.0 39 ------- null}
h -t 0.716240000000001 -s 2 -d 0 -p ack -e 40 -c 1 -i 96 -a 1 -x {2.0 0.0 -1 ------- null}
r -t 0.718080000000001 -s 2 -d 0 -p ack -e 40 -c 1 -i 92 -a 1 -x {2.0 0.0 37 ------- null}
+ -t 0.718080000000001 -s 0 -d 2 -p tcp -e 1040 -c 1 -i 97 -a 1 -x {0.0 2.0 57 ------- null}
- -t 0.718720000000002 -s 0 -d 2 -p tcp -e 1040 -c 1 -i 69 -a 1 -x {0.0 2.0 43 ------- null}
h -t 0.718720000000002 -s 0 -d 2 -p tcp -e 1040 -c 1 -i 69 -a 1 -x {0.0 2.0 -1 ------- null}