+ 0.5 1 4 cbr 512 ------- 0 1.0 4.0 0 0
- 0.5 1 4 cbr 512 ------- 0 1.0 4.0 0 0
+ 0.5 3 4 cbr 512 ------- 0 3.0 4.0 0 1
- 0.5 3 4 cbr 512 ------- 0 3.0 4.0 0 1
+ 0.505 1 4 cbr 512 ------- 0 1.0 4.0 1 2
- 0.505 1 4 cbr 512 ------- 0 1.0 4.0 1 2
+ 0.505 3 4 cbr 512 ------- 0 3.0 4.0 1 3
- 0.505 3 4 cbr 512 ------- 0 3.0 4.0 1 3
+ 0.51 1 4 cbr 512 ------- 0 1.0 4.0 2 4
- 0.51 1 4 cbr 512 ------- 0 1.0 4.0 2 4
+ 0.51 3 4 cbr 512 ------- 0 3.0 4.0 2 5
- 0.51 3 4 cbr 512 ------- 0 3.0 4.0 2 5
r 0.514096 1 4 cbr 512 ------- 0 1.0 4.0 0 0
r 0.514096 3 4 cbr 512 ------- 0 3.0 4.0 0 1
+ 0.515 1 4 cbr 512 ------- 0 1.0 4.0 3 6
- 0.515 1 4 cbr 512 ------- 0 1.0 4.0 3 6
+ 0.515 3 4 cbr 512 ------- 0 3.0 4.0 3 7
- 0.515 3 4 cbr 512 ------- 0 3.0 4.0 3 7
r 0.519096 1 4 cbr 512 ------- 0 1.0 4.0 1 2
r 0.519096 3 4 cbr 512 ------- 0 3.0 4.0 1 3
+ 0.52 1 4 cbr 512 ------- 0 1.0 4.0 4 8
- 0.52 1 4 cbr 512 ------- 0 1.0 4.0 4 8
+ 0.52 3 4 cbr 512 ------- 0 3.0 4.0 4 9
- 0.52 3 4 cbr 512 ------- 0 3.0 4.0 4 9
r 0.524096 1 4 cbr 512 ------- 0 1.0 4.0 2 4
r 0.524096 3 4 cbr 512 ------- 0 3.0 4.0 2 5
+ 0.525 1 4 cbr 512 ------- 0 1.0 4.0 5 10
- 0.525 1 4 cbr 512 ------- 0 1.0 4.0 5 10
+ 0.525 3 4 cbr 512 ------- 0 3.0 4.0 5 11
- 0.525 3 4 cbr 512 ------- 0 3.0 4.0 5 11
r 0.529096 1 4 cbr 512 ------- 0 1.0 4.0 3 6
r 0.529096 3 4 cbr 512 ------- 0 3.0 4.0 3 7
+ 0.53 1 4 cbr 512 ------- 0 1.0 4.0 6 12
- 0.53 1 4 cbr 512 ------- 0 1.0 4.0 6 12
+ 0.53 3 4 cbr 512 ------- 0 3.0 4.0 6 13
- 0.53 3 4 cbr 512 ------- 0 3.0 4.0 6 13
r 0.534096 1 4 cbr 512 ------- 0 1.0 4.0 4 8
r 0.534096 3 4 cbr 512 ------- 0 3.0 4.0 4 9
+ 0.535 1 4 cbr 512 ------- 0 1.0 4.0 7 14
- 0.535 1 4 cbr 512 ------- 0 1.0 4.0 7 14
+ 0.535 3 4 cbr 512 ------- 0 3.0 4.0 7 15
- 0.535 3 4 cbr 512 ------- 0 3.0 4.0 7 15
r 0.539096 1 4 cbr 512 ------- 0 1.0 4.0 5 10
r 0.539096 3 4 cbr 512 ------- 0 3.0 4.0 5 11
+ 0.54 1 4 cbr 512 ------- 0 1.0 4.0 8 16
- 0.54 1 4 cbr 512 ------- 0 1.0 4.0 8 16
+ 0.54 3 4 cbr 512 ------- 0 3.0 4.0 8 17
- 0.54 3 4 cbr 512 ------- 0 3.0 4.0 8 17
r 0.544096 1 4 cbr 512 ------- 0 1.0 4.0 6 12
r 0.544096 3 4 cbr 512 ------- 0 3.0 4.0 6 13
+ 0.545 1 4 cbr 512 ------- 0 1.0 4.0 9 18
- 0.545 1 4 cbr 512 ------- 0 1.0 4.0 9 18
+ 0.545 3 4 cbr 512 ------- 0 3.0 4.0 9 19
- 0.545 3 4 cbr 512 ------- 0 3.0 4.0 9 19
r 0.549096 1 4 cbr 512 ------- 0 1.0 4.0 7 14
r 0.549096 3 4 cbr 512 ------- 0 3.0 4.0 7 15
+ 0.55 1 4 cbr 512 ------- 0 1.0 4.0 10 20
- 0.55 1 4 cbr 512 ------- 0 1.0 4.0 10 20
+ 0.55 3 4 cbr 512 ------- 0 3.0 4.0 10 21
- 0.55 3 4 cbr 512 ------- 0 3.0 4.0 10 21
r 0.554096 1 4 cbr 512 ------- 0 1.0 4.0 8 16
r 0.554096 3 4 cbr 512 ------- 0 3.0 4.0 8 17
+ 0.555 1 4 cbr 512 ------- 0 1.0 4.0 11 22
- 0.555 1 4 cbr 512 ------- 0 1.0 4.0 11 22
+ 0.555 3 4 cbr 512 ------- 0 3.0 4.0 11 23
- 0.555 3 4 cbr 512 ------- 0 3.0 4.0 11 23
r 0.559096 1 4 cbr 512 ------- 0 1.0 4.0 9 18
r 0.559096 3 4 cbr 512 ------- 0 3.0 4.0 9 19
+ 0.56 1 4 cbr 512 ------- 0 1.0 4.0 12 24
- 0.56 1 4 cbr 512 ------- 0 1.0 4.0 12 24
+ 0.56 3 4 cbr 512 ------- 0 3.0 4.0 12 25
- 0.56 3 4 cbr 512 ------- 0 3.0 4.0 12 25
r 0.564096 1 4 cbr 512 ------- 0 1.0 4.0 10 20
r 0.564096 3 4 cbr 512 ------- 0 3.0 4.0 10 21
+ 0.565 1 4 cbr 512 ------- 0 1.0 4.0 13 26
- 0.565 1 4 cbr 512 ------- 0 1.0 4.0 13 26
+ 0.565 3 4 cbr 512 ------- 0 3.0 4.0 13 27
- 0.565 3 4 cbr 512 ------- 0 3.0 4.0 13 27
r 0.569096 1 4 cbr 512 ------- 0 1.0 4.0 11 22
r 0.569096 3 4 cbr 512 ------- 0 3.0 4.0 11 23
+ 0.57 1 4 cbr 512 ------- 0 1.0 4.0 14 28
- 0.57 1 4 cbr 512 ------- 0 1.0 4.0 14 28
+ 0.57 3 4 cbr 512 ------- 0 3.0 4.0 14 29
- 0.57 3 4 cbr 512 ------- 0 3.0 4.0 14 29
r 0.574096 1 4 cbr 512 ------- 0 1.0 4.0 12 24
r 0.574096 3 4 cbr 512 ------- 0 3.0 4.0 12 25
+ 0.575 1 4 cbr 512 ------- 0 1.0 4.0 15 30
- 0.575 1 4 cbr 512 ------- 0 1.0 4.0 15 30
+ 0.575 3 4 cbr 512 ------- 0 3.0 4.0 15 31
- 0.575 3 4 cbr 512 ------- 0 3.0 4.0 15 31
r 0.579096 1 4 cbr 512 ------- 0 1.0 4.0 13 26
r 0.579096 3 4 cbr 512 ------- 0 3.0 4.0 13 27
+ 0.58 1 4 cbr 512 ------- 0 1.0 4.0 16 32
- 0.58 1 4 cbr 512 ------- 0 1.0 4.0 16 32
+ 0.58 3 4 cbr 512 ------- 0 3.0 4.0 16 33
- 0.58 3 4 cbr 512 ------- 0 3.0 4.0 16 33
r 0.584096 1 4 cbr 512 ------- 0 1.0 4.0 14 28
r 0.584096 3 4 cbr 512 ------- 0 3.0 4.0 14 29
+ 0.585 1 4 cbr 512 ------- 0 1.0 4.0 17 34
- 0.585 1 4 cbr 512 ------- 0 1.0 4.0 17 34
+ 0.585 3 4 cbr 512 ------- 0 3.0 4.0 17 35
- 0.585 3 4 cbr 512 ------- 0 3.0 4.0 17 35
r 0.589096 1 4 cbr 512 ------- 0 1.0 4.0 15 30
r 0.589096 3 4 cbr 512 ------- 0 3.0 4.0 15 31
+ 0.59 1 4 cbr 512 ------- 0 1.0 4.0 18 36
- 0.59 1 4 cbr 512 ------- 0 1.0 4.0 18 36
+ 0.59 3 4 cbr 512 ------- 0 3.0 4.0 18 37
- 0.59 3 4 cbr 512 ------- 0 3.0 4.0 18 37
r 0.594096 1 4 cbr 512 ------- 0 1.0 4.0 16 32
r 0.594096 3 4 cbr 512 ------- 0 3.0 4.0 16 33
+ 0.595 1 4 cbr 512 ------- 0 1.0 4.0 19 38
- 0.595 1 4 cbr 512 ------- 0 1.0 4.0 19 38
+ 0.595 3 4 cbr 512 ------- 0 3.0 4.0 19 39
- 0.595 3 4 cbr 512 ------- 0 3.0 4.0 19 39
r 0.599096 1 4 cbr 512 ------- 0 1.0 4.0 17 34
r 0.599096 3 4 cbr 512 ------- 0 3.0 4.0 17 35
+ 0.6 1 4 cbr 512 ------- 0 1.0 4.0 20 40
- 0.6 1 4 cbr 512 ------- 0 1.0 4.0 20 40
+ 0.6 3 4 cbr 512 ------- 0 3.0 4.0 20 41
- 0.6 3 4 cbr 512 ------- 0 3.0 4.0 20 41
r 0.604096 1 4 cbr 512 ------- 0 1.0 4.0 18 36
r 0.604096 3 4 cbr 512 ------- 0 3.0 4.0 18 37
+ 0.605 1 4 cbr 512 ------- 0 1.0 4.0 21 42
- 0.605 1 4 cbr 512 ------- 0 1.0 4.0 21 42
+ 0.605 3 4 cbr 512 ------- 0 3.0 4.0 21 43
- 0.605 3 4 cbr 512 ------- 0 3.0 4.0 21 43
r 0.609096 1 4 cbr 512 ------- 0 1.0 4.0 19 38
r 0.609096 3 4 cbr 512 ------- 0 3.0 4.0 19 39
+ 0.61 1 4 cbr 512 ------- 0 1.0 4.0 22 44
- 0.61 1 4 cbr 512 ------- 0 1.0 4.0 22 44
+ 0.61 3 4 cbr 512 ------- 0 3.0 4.0 22 45
- 0.61 3 4 cbr 512 ------- 0 3.0 4.0 22 45
r 0.614096 1 4 cbr 512 ------- 0 1.0 4.0 20 40
r 0.614096 3 4 cbr 512 ------- 0 3.0 4.0 20 41
+ 0.615 1 4 cbr 512 ------- 0 1.0 4.0 23 46
- 0.615 1 4 cbr 512 ------- 0 1.0 4.0 23 46
+ 0.615 3 4 cbr 512 ------- 0 3.0 4.0 23 47
- 0.615 3 4 cbr 512 ------- 0 3.0 4.0 23 47
r 0.619096 1 4 cbr 512 ------- 0 1.0 4.0 21 42
r 0.619096 3 4 cbr 512 ------- 0 3.0 4.0 21 43
+ 0.62 1 4 cbr 512 ------- 0 1.0 4.0 24 48
- 0.62 1 4 cbr 512 ------- 0 1.0 4.0 24 48
+ 0.62 3 4 cbr 512 ------- 0 3.0 4.0 24 49
- 0.62 3 4 cbr 512 ------- 0 3.0 4.0 24 49
r 0.624096 1 4 cbr 512 ------- 0 1.0 4.0 22 44
r 0.624096 3 4 cbr 512 ------- 0 3.0 4.0 22 45
+ 0.625 1 4 cbr 512 ------- 0 1.0 4.0 25 50
- 0.625 1 4 cbr 512 ------- 0 1.0 4.0 25 50
+ 0.625 3 4 cbr 512 ------- 0 3.0 4.0 25 51
- 0.625 3 4 cbr 512 ------- 0 3.0 4.0 25 51
r 0.629096 1 4 cbr 512 ------- 0 1.0 4.0 23 46
r 0.629096 3 4 cbr 512 ------- 0 3.0 4.0 23 47
+ 0.63 1 4 cbr 512 ------- 0 1.0 4.0 26 52
- 0.63 1 4 cbr 512 ------- 0 1.0 4.0 26 52
+ 0.63 3 4 cbr 512 ------- 0 3.0 4.0 26 53
- 0.63 3 4 cbr 512 ------- 0 3.0 4.0 26 53
r 0.634096 1 4 cbr 512 ------- 0 1.0 4.0 24 48
r 0.634096 3 4 cbr 512 ------- 0 3.0 4.0 24 49
+ 0.635 1 4 cbr 512 ------- 0 1.0 4.0 27 54
- 0.635 1 4 cbr 512 ------- 0 1.0 4.0 27 54
+ 0.635 3 4 cbr 512 ------- 0 3.0 4.0 27 55
- 0.635 3 4 cbr 512 ------- 0 3.0 4.0 27 55
r 0.639096 1 4 cbr 512 ------- 0 1.0 4.0 25 50
r 0.639096 3 4 cbr 512 ------- 0 3.0 4.0 25 51
+ 0.64 1 4 cbr 512 ------- 0 1.0 4.0 28 56
- 0.64 1 4 cbr 512 ------- 0 1.0 4.0 28 56
+ 0.64 3 4 cbr 512 ------- 0 3.0 4.0 28 57
- 0.64 3 4 cbr 512 ------- 0 3.0 4.0 28 57
r 0.644096 1 4 cbr 512 ------- 0 1.0 4.0 26 52
r 0.644096 3 4 cbr 512 ------- 0 3.0 4.0 26 53
+ 0.645 1 4 cbr 512 ------- 0 1.0 4.0 29 58
- 0.645 1 4 cbr 512 ------- 0 1.0 4.0 29 58
+ 0.645 3 4 cbr 512 ------- 0 3.0 4.0 29 59
- 0.645 3 4 cbr 512 ------- 0 3.0 4.0 29 59
r 0.649096 1 4 cbr 512 ------- 0 1.0 4.0 27 54
r 0.649096 3 4 cbr 512 ------- 0 3.0 4.0 27 55
+ 0.65 1 4 cbr 512 ------- 0 1.0 4.0 30 60
- 0.65 1 4 cbr 512 ------- 0 1.0 4.0 30 60
+ 0.65 3 4 cbr 512 ------- 0 3.0 4.0 30 61
- 0.65 3 4 cbr 512 ------- 0 3.0 4.0 30 61
r 0.654096 1 4 cbr 512 ------- 0 1.0 4.0 28 56
r 0.654096 3 4 cbr 512 ------- 0 3.0 4.0 28 57
+ 0.655 1 4 cbr 512 ------- 0 1.0 4.0 31 62
- 0.655 1 4 cbr 512 ------- 0 1.0 4.0 31 62
+ 0.655 3 4 cbr 512 ------- 0 3.0 4.0 31 63
- 0.655 3 4 cbr 512 ------- 0 3.0 4.0 31 63
r 0.659096 1 4 cbr 512 ------- 0 1.0 4.0 29 58
r 0.659096 3 4 cbr 512 ------- 0 3.0 4.0 29 59
+ 0.66 1 4 cbr 512 ------- 0 1.0 4.0 32 64
- 0.66 1 4 cbr 512 ------- 0 1.0 4.0 32 64
+ 0.66 3 4 cbr 512 ------- 0 3.0 4.0 32 65
- 0.66 3 4 cbr 512 ------- 0 3.0 4.0 32 65
r 0.664096 1 4 cbr 512 ------- 0 1.0 4.0 30 60
r 0.664096 3 4 cbr 512 ------- 0 3.0 4.0 30 61
+ 0.665 1 4 cbr 512 ------- 0 1.0 4.0 33 66
- 0.665 1 4 cbr 512 ------- 0 1.0 4.0 33 66
+ 0.665 3 4 cbr 512 ------- 0 3.0 4.0 33 67
- 0.665 3 4 cbr 512 ------- 0 3.0 4.0 33 67
r 0.669096 1 4 cbr 512 ------- 0 1.0 4.0 31 62
r 0.669096 3 4 cbr 512 ------- 0 3.0 4.0 31 63
+ 0.67 1 4 cbr 512 ------- 0 1.0 4.0 34 68
- 0.67 1 4 cbr 512 ------- 0 1.0 4.0 34 68
+ 0.67 3 4 cbr 512 ------- 0 3.0 4.0 34 69
- 0.67 3 4 cbr 512 ------- 0 3.0 4.0 34 69
r 0.674096 1 4 cbr 512 ------- 0 1.0 4.0 32 64
r 0.674096 3 4 cbr 512 ------- 0 3.0 4.0 32 65
+ 0.675 1 4 cbr 512 ------- 0 1.0 4.0 35 70
- 0.675 1 4 cbr 512 ------- 0 1.0 4.0 35 70
+ 0.675 3 4 cbr 512 ------- 0 3.0 4.0 35 71
- 0.675 3 4 cbr 512 ------- 0 3.0 4.0 35 71
r 0.679096 1 4 cbr 512 ------- 0 1.0 4.0 33 66
r 0.679096 3 4 cbr 512 ------- 0 3.0 4.0 33 67
+ 0.68 1 4 cbr 512 ------- 0 1.0 4.0 36 72
- 0.68 1 4 cbr 512 ------- 0 1.0 4.0 36 72
+ 0.68 3 4 cbr 512 ------- 0 3.0 4.0 36 73
- 0.68 3 4 cbr 512 ------- 0 3.0 4.0 36 73
r 0.684096 1 4 cbr 512 ------- 0 1.0 4.0 34 68
r 0.684096 3 4 cbr 512 ------- 0 3.0 4.0 34 69
+ 0.685 1 4 cbr 512 ------- 0 1.0 4.0 37 74
- 0.685 1 4 cbr 512 ------- 0 1.0 4.0 37 74
+ 0.685 3 4 cbr 512 ------- 0 3.0 4.0 37 75
- 0.685 3 4 cbr 512 ------- 0 3.0 4.0 37 75
r 0.689096 1 4 cbr 512 ------- 0 1.0 4.0 35 70
r 0.689096 3 4 cbr 512 ------- 0 3.0 4.0 35 71
+ 0.69 1 4 cbr 512 ------- 0 1.0 4.0 38 76
- 0.69 1 4 cbr 512 ------- 0 1.0 4.0 38 76
+ 0.69 3 4 cbr 512 ------- 0 3.0 4.0 38 77
- 0.69 3 4 cbr 512 ------- 0 3.0 4.0 38 77
r 0.694096 1 4 cbr 512 ------- 0 1.0 4.0 36 72
r 0.694096 3 4 cbr 512 ------- 0 3.0 4.0 36 73
+ 0.695 1 4 cbr 512 ------- 0 1.0 4.0 39 78
- 0.695 1 4 cbr 512 ------- 0 1.0 4.0 39 78
+ 0.695 3 4 cbr 512 ------- 0 3.0 4.0 39 79
- 0.695 3 4 cbr 512 ------- 0 3.0 4.0 39 79
r 0.699096 1 4 cbr 512 ------- 0 1.0 4.0 37 74
r 0.699096 3 4 cbr 512 ------- 0 3.0 4.0 37 75
+ 0.7 1 4 cbr 512 ------- 0 1.0 4.0 40 80
- 0.7 1 4 cbr 512 ------- 0 1.0 4.0 40 80
+ 0.7 3 4 cbr 512 ------- 0 3.0 4.0 40 81
- 0.7 3 4 cbr 512 ------- 0 3.0 4.0 40 81
r 0.704096 1 4 cbr 512 ------- 0 1.0 4.0 38 76
r 0.704096 3 4 cbr 512 ------- 0 3.0 4.0 38 77
+ 0.705 1 4 cbr 512 ------- 0 1.0 4.0 41 82
- 0.705 1 4 cbr 512 ------- 0 1.0 4.0 41 82
+ 0.705 3 4 cbr 512 ------- 0 3.0 4.0 41 83
- 0.705 3 4 cbr 512 ------- 0 3.0 4.0 41 83
r 0.709096 1 4 cbr 512 ------- 0 1.0 4.0 39 78
r 0.709096 3 4 cbr 512 ------- 0 3.0 4.0 39 79
+ 0.71 1 4 cbr 512 ------- 0 1.0 4.0 42 84
- 0.71 1 4 cbr 512 ------- 0 1.0 4.0 42 84
+ 0.71 3 4 cbr 512 ------- 0 3.0 4.0 42 85
- 0.71 3 4 cbr 512 ------- 0 3.0 4.0 42 85
r 0.714096 1 4 cbr 512 ------- 0 1.0 4.0 40 80
r 0.714096 3 4 cbr 512 ------- 0 3.0 4.0 40 81
+ 0.715 1 4 cbr 512 ------- 0 1.0 4.0 43 86
- 0.715 1 4 cbr 512 ------- 0 1.0 4.0 43 86
+ 0.715 3 4 cbr 512 ------- 0 3.0 4.0 43 87
- 0.715 3 4 cbr 512 ------- 0 3.0 4.0 43 87
r 0.719096 1 4 cbr 512 ------- 0 1.0 4.0 41 82
r 0.719096 3 4 cbr 512 ------- 0 3.0 4.0 41 83
+ 0.72 1 4 cbr 512 ------- 0 1.0 4.0 44 88
- 0.72 1 4 cbr 512 ------- 0 1.0 4.0 44 88
+ 0.72 3 4 cbr 512 ------- 0 3.0 4.0 44 89
- 0.72 3 4 cbr 512 ------- 0 3.0 4.0 44 89
r 0.724096 1 4 cbr 512 ------- 0 1.0 4.0 42 84
r 0.724096 3 4 cbr 512 ------- 0 3.0 4.0 42 85
+ 0.725 1 4 cbr 512 ------- 0 1.0 4.0 45 90
- 0.725 1 4 cbr 512 ------- 0 1.0 4.0 45 90
+ 0.725 3 4 cbr 512 ------- 0 3.0 4.0 45 91
- 0.725 3 4 cbr 512 ------- 0 3.0 4.0 45 91
r 0.729096 1 4 cbr 512 ------- 0 1.0 4.0 43 86
r 0.729096 3 4 cbr 512 ------- 0 3.0 4.0 43 87
+ 0.73 1 4 cbr 512 ------- 0 1.0 4.0 46 92
- 0.73 1 4 cbr 512 ------- 0 1.0 4.0 46 92
+ 0.73 3 4 cbr 512 ------- 0 3.0 4.0 46 93
- 0.73 3 4 cbr 512 ------- 0 3.0 4.0 46 93
r 0.734096 1 4 cbr 512 ------- 0 1.0 4.0 44 88
r 0.734096 3 4 cbr 512 ------- 0 3.0 4.0 44 89
+ 0.735 1 4 cbr 512 ------- 0 1.0 4.0 47 94
- 0.735 1 4 cbr 512 ------- 0 1.0 4.0 47 94
+ 0.735 3 4 cbr 512 ------- 0 3.0 4.0 47 95
- 0.735 3 4 cbr 512 ------- 0 3.0 4.0 47 95
r 0.739096 1 4 cbr 512 ------- 0 1.0 4.0 45 90
r 0.739096 3 4 cbr 512 ------- 0 3.0 4.0 45 91
+ 0.74 1 4 cbr 512 ------- 0 1.0 4.0 48 96
- 0.74 1 4 cbr 512 ------- 0 1.0 4.0 48 96
+ 0.74 3 4 cbr 512 ------- 0 3.0 4.0 48 97
- 0.74 3 4 cbr 512 ------- 0 3.0 4.0 48 97
r 0.744096 1 4 cbr 512 ------- 0 1.0 4.0 46 92
r 0.744096 3 4 cbr 512 ------- 0 3.0 4.0 46 93
+ 0.745 1 4 cbr 512 ------- 0 1.0 4.0 49 98
- 0.745 1 4 cbr 512 ------- 0 1.0 4.0 49 98
+ 0.745 3 4 cbr 512 ------- 0 3.0 4.0 49 99
- 0.745 3 4 cbr 512 ------- 0 3.0 4.0 49 99
r 0.749096 1 4 cbr 512 ------- 0 1.0 4.0 47 94
r 0.749096 3 4 cbr 512 ------- 0 3.0 4.0 47 95
+ 0.75 1 4 cbr 512 ------- 0 1.0 4.0 50 100
- 0.75 1 4 cbr 512 ------- 0 1.0 4.0 50 100
+ 0.75 3 4 cbr 512 ------- 0 3.0 4.0 50 101
- 0.75 3 4 cbr 512 ------- 0 3.0 4.0 50 101
r 0.754096 1 4 cbr 512 ------- 0 1.0 4.0 48 96
r 0.754096 3 4 cbr 512 ------- 0 3.0 4.0 48 97
+ 0.755 1 4 cbr 512 ------- 0 1.0 4.0 51 102
- 0.755 1 4 cbr 512 ------- 0 1.0 4.0 51 102
+ 0.755 3 4 cbr 512 ------- 0 3.0 4.0 51 103
- 0.755 3 4 cbr 512 ------- 0 3.0 4.0 51 103
r 0.759096 1 4 cbr 512 ------- 0 1.0 4.0 49 98
r 0.759096 3 4 cbr 512 ------- 0 3.0 4.0 49 99
+ 0.76 1 4 cbr 512 ------- 0 1.0 4.0 52 104
- 0.76 1 4 cbr 512 ------- 0 1.0 4.0 52 104
+ 0.76 3 4 cbr 512 ------- 0 3.0 4.0 52 105
- 0.76 3 4 cbr 512 ------- 0 3.0 4.0 52 105
r 0.764096 1 4 cbr 512 ------- 0 1.0 4.0 50 100
r 0.764096 3 4 cbr 512 ------- 0 3.0 4.0 50 101
+ 0.765 1 4 cbr 512 ------- 0 1.0 4.0 53 106
- 0.765 1 4 cbr 512 ------- 0 1.0 4.0 53 106
+ 0.765 3 4 cbr 512 ------- 0 3.0 4.0 53 107
- 0.765 3 4 cbr 512 ------- 0 3.0 4.0 53 107
r 0.769096 1 4 cbr 512 ------- 0 1.0 4.0 51 102
r 0.769096 3 4 cbr 512 ------- 0 3.0 4.0 51 103
+ 0.77 1 4 cbr 512 ------- 0 1.0 4.0 54 108
- 0.77 1 4 cbr 512 ------- 0 1.0 4.0 54 108
+ 0.77 3 4 cbr 512 ------- 0 3.0 4.0 54 109
- 0.77 3 4 cbr 512 ------- 0 3.0 4.0 54 109
r 0.774096 1 4 cbr 512 ------- 0 1.0 4.0 52 104
r 0.774096 3 4 cbr 512 ------- 0 3.0 4.0 52 105
+ 0.775 1 4 cbr 512 ------- 0 1.0 4.0 55 110
- 0.775 1 4 cbr 512 ------- 0 1.0 4.0 55 110
+ 0.775 3 4 cbr 512 ------- 0 3.0 4.0 55 111
- 0.775 3 4 cbr 512 ------- 0 3.0 4.0 55 111
r 0.779096 1 4 cbr 512 ------- 0 1.0 4.0 53 106
r 0.779096 3 4 cbr 512 ------- 0 3.0 4.0 53 107
+ 0.78 1 4 cbr 512 ------- 0 1.0 4.0 56 112
- 0.78 1 4 cbr 512 ------- 0 1.0 4.0 56 112
+ 0.78 3 4 cbr 512 ------- 0 3.0 4.0 56 113
- 0.78 3 4 cbr 512 ------- 0 3.0 4.0 56 113
r 0.784096 1 4 cbr 512 ------- 0 1.0 4.0 54 108
r 0.784096 3 4 cbr 512 ------- 0 3.0 4.0 54 109
+ 0.785 1 4 cbr 512 ------- 0 1.0 4.0 57 114
- 0.785 1 4 cbr 512 ------- 0 1.0 4.0 57 114
+ 0.785 3 4 cbr 512 ------- 0 3.0 4.0 57 115
- 0.785 3 4 cbr 512 ------- 0 3.0 4.0 57 115
r 0.789096 1 4 cbr 512 ------- 0 1.0 4.0 55 110
r 0.789096 3 4 cbr 512 ------- 0 3.0 4.0 55 111
+ 0.79 1 4 cbr 512 ------- 0 1.0 4.0 58 116
- 0.79 1 4 cbr 512 ------- 0 1.0 4.0 58 116
+ 0.79 3 4 cbr 512 ------- 0 3.0 4.0 58 117
- 0.79 3 4 cbr 512 ------- 0 3.0 4.0 58 117
r 0.794096 1 4 cbr 512 ------- 0 1.0 4.0 56 112
r 0.794096 3 4 cbr 512 ------- 0 3.0 4.0 56 113
+ 0.795 1 4 cbr 512 ------- 0 1.0 4.0 59 118
- 0.795 1 4 cbr 512 ------- 0 1.0 4.0 59 118
+ 0.795 3 4 cbr 512 ------- 0 3.0 4.0 59 119
- 0.795 3 4 cbr 512 ------- 0 3.0 4.0 59 119
r 0.799096 1 4 cbr 512 ------- 0 1.0 4.0 57 114
r 0.799096 3 4 cbr 512 ------- 0 3.0 4.0 57 115
+ 0.8 1 4 cbr 512 ------- 0 1.0 4.0 60 120
- 0.8 1 4 cbr 512 ------- 0 1.0 4.0 60 120
+ 0.8 3 4 cbr 512 ------- 0 3.0 4.0 60 121
- 0.8 3 4 cbr 512 ------- 0 3.0 4.0 60 121
r 0.804096 1 4 cbr 512 ------- 0 1.0 4.0 58 116
r 0.804096 3 4 cbr 512 ------- 0 3.0 4.0 58 117
+ 0.805 1 4 cbr 512 ------- 0 1.0 4.0 61 122
- 0.805 1 4 cbr 512 ------- 0 1.0 4.0 61 122
+ 0.805 3 4 cbr 512 ------- 0 3.0 4.0 61 123
- 0.805 3 4 cbr 512 ------- 0 3.0 4.0 61 123
r 0.809096 1 4 cbr 512 ------- 0 1.0 4.0 59 118
r 0.809096 3 4 cbr 512 ------- 0 3.0 4.0 59 119
+ 0.81 1 4 cbr 512 ------- 0 1.0 4.0 62 124
- 0.81 1 4 cbr 512 ------- 0 1.0 4.0 62 124
+ 0.81 3 4 cbr 512 ------- 0 3.0 4.0 62 125
- 0.81 3 4 cbr 512 ------- 0 3.0 4.0 62 125
r 0.814096 1 4 cbr 512 ------- 0 1.0 4.0 60 120
r 0.814096 3 4 cbr 512 ------- 0 3.0 4.0 60 121
+ 0.815 1 4 cbr 512 ------- 0 1.0 4.0 63 126
- 0.815 1 4 cbr 512 ------- 0 1.0 4.0 63 126
+ 0.815 3 4 cbr 512 ------- 0 3.0 4.0 63 127
- 0.815 3 4 cbr 512 ------- 0 3.0 4.0 63 127
r 0.819096 1 4 cbr 512 ------- 0 1.0 4.0 61 122
r 0.819096 3 4 cbr 512 ------- 0 3.0 4.0 61 123
+ 0.82 1 4 cbr 512 ------- 0 1.0 4.0 64 128
- 0.82 1 4 cbr 512 ------- 0 1.0 4.0 64 128
+ 0.82 3 4 cbr 512 ------- 0 3.0 4.0 64 129
- 0.82 3 4 cbr 512 ------- 0 3.0 4.0 64 129
r 0.824096 1 4 cbr 512 ------- 0 1.0 4.0 62 124
r 0.824096 3 4 cbr 512 ------- 0 3.0 4.0 62 125
+ 0.825 1 4 cbr 512 ------- 0 1.0 4.0 65 130
- 0.825 1 4 cbr 512 ------- 0 1.0 4.0 65 130
+ 0.825 3 4 cbr 512 ------- 0 3.0 4.0 65 131
- 0.825 3 4 cbr 512 ------- 0 3.0 4.0 65 131
r 0.829096 1 4 cbr 512 ------- 0 1.0 4.0 63 126
r 0.829096 3 4 cbr 512 ------- 0 3.0 4.0 63 127
+ 0.83 1 4 cbr 512 ------- 0 1.0 4.0 66 132
- 0.83 1 4 cbr 512 ------- 0 1.0 4.0 66 132
+ 0.83 3 4 cbr 512 ------- 0 3.0 4.0 66 133
- 0.83 3 4 cbr 512 ------- 0 3.0 4.0 66 133
r 0.834096 1 4 cbr 512 ------- 0 1.0 4.0 64 128
r 0.834096 3 4 cbr 512 ------- 0 3.0 4.0 64 129
+ 0.835 1 4 cbr 512 ------- 0 1.0 4.0 67 134
- 0.835 1 4 cbr 512 ------- 0 1.0 4.0 67 134
+ 0.835 3 4 cbr 512 ------- 0 3.0 4.0 67 135
- 0.835 3 4 cbr 512 ------- 0 3.0 4.0 67 135
r 0.839096 1 4 cbr 512 ------- 0 1.0 4.0 65 130
r 0.839096 3 4 cbr 512 ------- 0 3.0 4.0 65 131
+ 0.84 1 4 cbr 512 ------- 0 1.0 4.0 68 136
- 0.84 1 4 cbr 512 ------- 0 1.0 4.0 68 136
+ 0.84 3 4 cbr 512 ------- 0 3.0 4.0 68 137
- 0.84 3 4 cbr 512 ------- 0 3.0 4.0 68 137
r 0.844096 1 4 cbr 512 ------- 0 1.0 4.0 66 132
r 0.844096 3 4 cbr 512 ------- 0 3.0 4.0 66 133
+ 0.845 1 4 cbr 512 ------- 0 1.0 4.0 69 138
- 0.845 1 4 cbr 512 ------- 0 1.0 4.0 69 138
+ 0.845 3 4 cbr 512 ------- 0 3.0 4.0 69 139
- 0.845 3 4 cbr 512 ------- 0 3.0 4.0 69 139
r 0.849096 1 4 cbr 512 ------- 0 1.0 4.0 67 134
r 0.849096 3 4 cbr 512 ------- 0 3.0 4.0 67 135
+ 0.85 1 4 cbr 512 ------- 0 1.0 4.0 70 140
- 0.85 1 4 cbr 512 ------- 0 1.0 4.0 70 140
+ 0.85 3 4 cbr 512 ------- 0 3.0 4.0 70 141
- 0.85 3 4 cbr 512 ------- 0 3.0 4.0 70 141
r 0.854096 1 4 cbr 512 ------- 0 1.0 4.0 68 136
r 0.854096 3 4 cbr 512 ------- 0 3.0 4.0 68 137
+ 0.855 1 4 cbr 512 ------- 0 1.0 4.0 71 142
- 0.855 1 4 cbr 512 ------- 0 1.0 4.0 71 142
+ 0.855 3 4 cbr 512 ------- 0 3.0 4.0 71 143
- 0.855 3 4 cbr 512 ------- 0 3.0 4.0 71 143
r 0.859096 1 4 cbr 512 ------- 0 1.0 4.0 69 138
r 0.859096 3 4 cbr 512 ------- 0 3.0 4.0 69 139
+ 0.86 1 4 cbr 512 ------- 0 1.0 4.0 72 144
- 0.86 1 4 cbr 512 ------- 0 1.0 4.0 72 144
+ 0.86 3 4 cbr 512 ------- 0 3.0 4.0 72 145
- 0.86 3 4 cbr 512 ------- 0 3.0 4.0 72 145
r 0.864096 1 4 cbr 512 ------- 0 1.0 4.0 70 140
r 0.864096 3 4 cbr 512 ------- 0 3.0 4.0 70 141
+ 0.865 1 4 cbr 512 ------- 0 1.0 4.0 73 146
- 0.865 1 4 cbr 512 ------- 0 1.0 4.0 73 146
+ 0.865 3 4 cbr 512 ------- 0 3.0 4.0 73 147
- 0.865 3 4 cbr 512 ------- 0 3.0 4.0 73 147
r 0.869096 1 4 cbr 512 ------- 0 1.0 4.0 71 142
r 0.869096 3 4 cbr 512 ------- 0 3.0 4.0 71 143
+ 0.87 1 4 cbr 512 ------- 0 1.0 4.0 74 148
- 0.87 1 4 cbr 512 ------- 0 1.0 4.0 74 148
+ 0.87 3 4 cbr 512 ------- 0 3.0 4.0 74 149
- 0.87 3 4 cbr 512 ------- 0 3.0 4.0 74 149
r 0.874096 1 4 cbr 512 ------- 0 1.0 4.0 72 144
r 0.874096 3 4 cbr 512 ------- 0 3.0 4.0 72 145
+ 0.875 1 4 cbr 512 ------- 0 1.0 4.0 75 150
- 0.875 1 4 cbr 512 ------- 0 1.0 4.0 75 150
+ 0.875 3 4 cbr 512 ------- 0 3.0 4.0 75 151
- 0.875 3 4 cbr 512 ------- 0 3.0 4.0 75 151
r 0.879096 1 4 cbr 512 ------- 0 1.0 4.0 73 146
r 0.879096 3 4 cbr 512 ------- 0 3.0 4.0 73 147
+ 0.88 1 4 cbr 512 ------- 0 1.0 4.0 76 152
- 0.88 1 4 cbr 512 ------- 0 1.0 4.0 76 152
+ 0.88 3 4 cbr 512 ------- 0 3.0 4.0 76 153
- 0.88 3 4 cbr 512 ------- 0 3.0 4.0 76 153
r 0.884096 1 4 cbr 512 ------- 0 1.0 4.0 74 148
r 0.884096 3 4 cbr 512 ------- 0 3.0 4.0 74 149
+ 0.885 1 4 cbr 512 ------- 0 1.0 4.0 77 154
- 0.885 1 4 cbr 512 ------- 0 1.0 4.0 77 154
+ 0.885 3 4 cbr 512 ------- 0 3.0 4.0 77 155
- 0.885 3 4 cbr 512 ------- 0 3.0 4.0 77 155
r 0.889096 1 4 cbr 512 ------- 0 1.0 4.0 75 150
r 0.889096 3 4 cbr 512 ------- 0 3.0 4.0 75 151
+ 0.89 1 4 cbr 512 ------- 0 1.0 4.0 78 156
- 0.89 1 4 cbr 512 ------- 0 1.0 4.0 78 156
+ 0.89 3 4 cbr 512 ------- 0 3.0 4.0 78 157
- 0.89 3 4 cbr 512 ------- 0 3.0 4.0 78 157
r 0.894096 1 4 cbr 512 ------- 0 1.0 4.0 76 152
r 0.894096 3 4 cbr 512 ------- 0 3.0 4.0 76 153
+ 0.895 1 4 cbr 512 ------- 0 1.0 4.0 79 158
- 0.895 1 4 cbr 512 ------- 0 1.0 4.0 79 158
+ 0.895 3 4 cbr 512 ------- 0 3.0 4.0 79 159
- 0.895 3 4 cbr 512 ------- 0 3.0 4.0 79 159
r 0.899096 1 4 cbr 512 ------- 0 1.0 4.0 77 154
r 0.899096 3 4 cbr 512 ------- 0 3.0 4.0 77 155
+ 0.9 1 4 cbr 512 ------- 0 1.0 4.0 80 160
- 0.9 1 4 cbr 512 ------- 0 1.0 4.0 80 160
+ 0.9 3 4 cbr 512 ------- 0 3.0 4.0 80 161
- 0.9 3 4 cbr 512 ------- 0 3.0 4.0 80 161
r 0.904096 1 4 cbr 512 ------- 0 1.0 4.0 78 156
r 0.904096 3 4 cbr 512 ------- 0 3.0 4.0 78 157
+ 0.905 1 4 cbr 512 ------- 0 1.0 4.0 81 162
- 0.905 1 4 cbr 512 ------- 0 1.0 4.0 81 162
+ 0.905 3 4 cbr 512 ------- 0 3.0 4.0 81 163
- 0.905 3 4 cbr 512 ------- 0 3.0 4.0 81 163
r 0.909096 1 4 cbr 512 ------- 0 1.0 4.0 79 158
r 0.909096 3 4 cbr 512 ------- 0 3.0 4.0 79 159
+ 0.91 1 4 cbr 512 ------- 0 1.0 4.0 82 164
- 0.91 1 4 cbr 512 ------- 0 1.0 4.0 82 164
+ 0.91 3 4 cbr 512 ------- 0 3.0 4.0 82 165
- 0.91 3 4 cbr 512 ------- 0 3.0 4.0 82 165
r 0.914096 1 4 cbr 512 ------- 0 1.0 4.0 80 160
r 0.914096 3 4 cbr 512 ------- 0 3.0 4.0 80 161
+ 0.915 1 4 cbr 512 ------- 0 1.0 4.0 83 166
- 0.915 1 4 cbr 512 ------- 0 1.0 4.0 83 166
+ 0.915 3 4 cbr 512 ------- 0 3.0 4.0 83 167
- 0.915 3 4 cbr 512 ------- 0 3.0 4.0 83 167
r 0.919096 1 4 cbr 512 ------- 0 1.0 4.0 81 162
r 0.919096 3 4 cbr 512 ------- 0 3.0 4.0 81 163
+ 0.92 1 4 cbr 512 ------- 0 1.0 4.0 84 168
- 0.92 1 4 cbr 512 ------- 0 1.0 4.0 84 168
+ 0.92 3 4 cbr 512 ------- 0 3.0 4.0 84 169
- 0.92 3 4 cbr 512 ------- 0 3.0 4.0 84 169
r 0.924096 1 4 cbr 512 ------- 0 1.0 4.0 82 164
r 0.924096 3 4 cbr 512 ------- 0 3.0 4.0 82 165
+ 0.925 1 4 cbr 512 ------- 0 1.0 4.0 85 170
- 0.925 1 4 cbr 512 ------- 0 1.0 4.0 85 170
+ 0.925 3 4 cbr 512 ------- 0 3.0 4.0 85 171
- 0.925 3 4 cbr 512 ------- 0 3.0 4.0 85 171
r 0.929096 1 4 cbr 512 ------- 0 1.0 4.0 83 166
r 0.929096 3 4 cbr 512 ------- 0 3.0 4.0 83 167
+ 0.93 1 4 cbr 512 ------- 0 1.0 4.0 86 172
- 0.93 1 4 cbr 512 ------- 0 1.0 4.0 86 172
+ 0.93 3 4 cbr 512 ------- 0 3.0 4.0 86 173
- 0.93 3 4 cbr 512 ------- 0 3.0 4.0 86 173
r 0.934096 1 4 cbr 512 ------- 0 1.0 4.0 84 168
r 0.934096 3 4 cbr 512 ------- 0 3.0 4.0 84 169
+ 0.935 1 4 cbr 512 ------- 0 1.0 4.0 87 174
- 0.935 1 4 cbr 512 ------- 0 1.0 4.0 87 174
+ 0.935 3 4 cbr 512 ------- 0 3.0 4.0 87 175
- 0.935 3 4 cbr 512 ------- 0 3.0 4.0 87 175
r 0.939096 1 4 cbr 512 ------- 0 1.0 4.0 85 170
r 0.939096 3 4 cbr 512 ------- 0 3.0 4.0 85 171
+ 0.94 1 4 cbr 512 ------- 0 1.0 4.0 88 176
- 0.94 1 4 cbr 512 ------- 0 1.0 4.0 88 176
+ 0.94 3 4 cbr 512 ------- 0 3.0 4.0 88 177
- 0.94 3 4 cbr 512 ------- 0 3.0 4.0 88 177
r 0.944096 1 4 cbr 512 ------- 0 1.0 4.0 86 172
r 0.944096 3 4 cbr 512 ------- 0 3.0 4.0 86 173
+ 0.945 1 4 cbr 512 ------- 0 1.0 4.0 89 178
- 0.945 1 4 cbr 512 ------- 0 1.0 4.0 89 178
+ 0.945 3 4 cbr 512 ------- 0 3.0 4.0 89 179
- 0.945 3 4 cbr 512 ------- 0 3.0 4.0 89 179
r 0.949096 1 4 cbr 512 ------- 0 1.0 4.0 87 174
r 0.949096 3 4 cbr 512 ------- 0 3.0 4.0 87 175
+ 0.95 1 4 cbr 512 ------- 0 1.0 4.0 90 180
- 0.95 1 4 cbr 512 ------- 0 1.0 4.0 90 180
+ 0.95 3 4 cbr 512 ------- 0 3.0 4.0 90 181
- 0.95 3 4 cbr 512 ------- 0 3.0 4.0 90 181
r 0.954096 1 4 cbr 512 ------- 0 1.0 4.0 88 176
r 0.954096 3 4 cbr 512 ------- 0 3.0 4.0 88 177
+ 0.955 1 4 cbr 512 ------- 0 1.0 4.0 91 182
- 0.955 1 4 cbr 512 ------- 0 1.0 4.0 91 182
+ 0.955 3 4 cbr 512 ------- 0 3.0 4.0 91 183
- 0.955 3 4 cbr 512 ------- 0 3.0 4.0 91 183
r 0.959096 1 4 cbr 512 ------- 0 1.0 4.0 89 178
r 0.959096 3 4 cbr 512 ------- 0 3.0 4.0 89 179
+ 0.96 1 4 cbr 512 ------- 0 1.0 4.0 92 184
- 0.96 1 4 cbr 512 ------- 0 1.0 4.0 92 184
+ 0.96 3 4 cbr 512 ------- 0 3.0 4.0 92 185
- 0.96 3 4 cbr 512 ------- 0 3.0 4.0 92 185
r 0.964096 1 4 cbr 512 ------- 0 1.0 4.0 90 180
r 0.964096 3 4 cbr 512 ------- 0 3.0 4.0 90 181
+ 0.965 1 4 cbr 512 ------- 0 1.0 4.0 93 186
- 0.965 1 4 cbr 512 ------- 0 1.0 4.0 93 186
+ 0.965 3 4 cbr 512 ------- 0 3.0 4.0 93 187
- 0.965 3 4 cbr 512 ------- 0 3.0 4.0 93 187
r 0.969096 1 4 cbr 512 ------- 0 1.0 4.0 91 182
r 0.969096 3 4 cbr 512 ------- 0 3.0 4.0 91 183
+ 0.97 1 4 cbr 512 ------- 0 1.0 4.0 94 188
- 0.97 1 4 cbr 512 ------- 0 1.0 4.0 94 188
+ 0.97 3 4 cbr 512 ------- 0 3.0 4.0 94 189
- 0.97 3 4 cbr 512 ------- 0 3.0 4.0 94 189
r 0.974096 1 4 cbr 512 ------- 0 1.0 4.0 92 184
r 0.974096 3 4 cbr 512 ------- 0 3.0 4.0 92 185
+ 0.975 1 4 cbr 512 ------- 0 1.0 4.0 95 190
- 0.975 1 4 cbr 512 ------- 0 1.0 4.0 95 190
+ 0.975 3 4 cbr 512 ------- 0 3.0 4.0 95 191
- 0.975 3 4 cbr 512 ------- 0 3.0 4.0 95 191
r 0.979096 1 4 cbr 512 ------- 0 1.0 4.0 93 186
r 0.979096 3 4 cbr 512 ------- 0 3.0 4.0 93 187
+ 0.98 1 4 cbr 512 ------- 0 1.0 4.0 96 192
- 0.98 1 4 cbr 512 ------- 0 1.0 4.0 96 192
+ 0.98 3 4 cbr 512 ------- 0 3.0 4.0 96 193
- 0.98 3 4 cbr 512 ------- 0 3.0 4.0 96 193
r 0.984096 1 4 cbr 512 ------- 0 1.0 4.0 94 188
r 0.984096 3 4 cbr 512 ------- 0 3.0 4.0 94 189
+ 0.985 1 4 cbr 512 ------- 0 1.0 4.0 97 194
- 0.985 1 4 cbr 512 ------- 0 1.0 4.0 97 194
+ 0.985 3 4 cbr 512 ------- 0 3.0 4.0 97 195
- 0.985 3 4 cbr 512 ------- 0 3.0 4.0 97 195
r 0.989096 1 4 cbr 512 ------- 0 1.0 4.0 95 190
r 0.989096 3 4 cbr 512 ------- 0 3.0 4.0 95 191
+ 0.99 1 4 cbr 512 ------- 0 1.0 4.0 98 196
- 0.99 1 4 cbr 512 ------- 0 1.0 4.0 98 196
+ 0.99 3 4 cbr 512 ------- 0 3.0 4.0 98 197
- 0.99 3 4 cbr 512 ------- 0 3.0 4.0 98 197
r 0.994096 1 4 cbr 512 ------- 0 1.0 4.0 96 192
r 0.994096 3 4 cbr 512 ------- 0 3.0 4.0 96 193
+ 0.995 1 4 cbr 512 ------- 0 1.0 4.0 99 198
- 0.995 1 4 cbr 512 ------- 0 1.0 4.0 99 198
+ 0.995 3 4 cbr 512 ------- 0 3.0 4.0 99 199
- 0.995 3 4 cbr 512 ------- 0 3.0 4.0 99 199
r 0.999096 1 4 cbr 512 ------- 0 1.0 4.0 97 194
r 0.999096 3 4 cbr 512 ------- 0 3.0 4.0 97 195
+ 1 1 4 cbr 512 ------- 0 1.0 4.0 100 200
- 1 1 4 cbr 512 ------- 0 1.0 4.0 100 200
+ 1 3 4 cbr 512 ------- 0 3.0 4.0 100 201
- 1 3 4 cbr 512 ------- 0 3.0 4.0 100 201
r 1.004096 1 4 cbr 512 ------- 0 1.0 4.0 98 196
r 1.004096 3 4 cbr 512 ------- 0 3.0 4.0 98 197
+ 1.005 1 4 cbr 512 ------- 0 1.0 4.0 101 202
- 1.005 1 4 cbr 512 ------- 0 1.0 4.0 101 202
+ 1.005 3 4 cbr 512 ------- 0 3.0 4.0 101 203
- 1.005 3 4 cbr 512 ------- 0 3.0 4.0 101 203
r 1.009096 1 4 cbr 512 ------- 0 1.0 4.0 99 198
r 1.009096 3 4 cbr 512 ------- 0 3.0 4.0 99 199
+ 1.01 1 4 cbr 512 ------- 0 1.0 4.0 102 204
- 1.01 1 4 cbr 512 ------- 0 1.0 4.0 102 204
+ 1.01 3 4 cbr 512 ------- 0 3.0 4.0 102 205
- 1.01 3 4 cbr 512 ------- 0 3.0 4.0 102 205
r 1.014096 1 4 cbr 512 ------- 0 1.0 4.0 100 200
r 1.014096 3 4 cbr 512 ------- 0 3.0 4.0 100 201
+ 1.015 1 4 cbr 512 ------- 0 1.0 4.0 103 206
- 1.015 1 4 cbr 512 ------- 0 1.0 4.0 103 206
+ 1.015 3 4 cbr 512 ------- 0 3.0 4.0 103 207
- 1.015 3 4 cbr 512 ------- 0 3.0 4.0 103 207
r 1.019096 1 4 cbr 512 ------- 0 1.0 4.0 101 202
r 1.019096 3 4 cbr 512 ------- 0 3.0 4.0 101 203
+ 1.02 1 4 cbr 512 ------- 0 1.0 4.0 104 208
- 1.02 1 4 cbr 512 ------- 0 1.0 4.0 104 208
+ 1.02 3 4 cbr 512 ------- 0 3.0 4.0 104 209
- 1.02 3 4 cbr 512 ------- 0 3.0 4.0 104 209
r 1.024096 1 4 cbr 512 ------- 0 1.0 4.0 102 204
r 1.024096 3 4 cbr 512 ------- 0 3.0 4.0 102 205
+ 1.025 1 4 cbr 512 ------- 0 1.0 4.0 105 210
- 1.025 1 4 cbr 512 ------- 0 1.0 4.0 105 210
+ 1.025 3 4 cbr 512 ------- 0 3.0 4.0 105 211
- 1.025 3 4 cbr 512 ------- 0 3.0 4.0 105 211
r 1.029096 1 4 cbr 512 ------- 0 1.0 4.0 103 206
r 1.029096 3 4 cbr 512 ------- 0 3.0 4.0 103 207
+ 1.03 1 4 cbr 512 ------- 0 1.0 4.0 106 212
- 1.03 1 4 cbr 512 ------- 0 1.0 4.0 106 212
+ 1.03 3 4 cbr 512 ------- 0 3.0 4.0 106 213
- 1.03 3 4 cbr 512 ------- 0 3.0 4.0 106 213
r 1.034096 1 4 cbr 512 ------- 0 1.0 4.0 104 208
r 1.034096 3 4 cbr 512 ------- 0 3.0 4.0 104 209
+ 1.035 1 4 cbr 512 ------- 0 1.0 4.0 107 214
- 1.035 1 4 cbr 512 ------- 0 1.0 4.0 107 214
+ 1.035 3 4 cbr 512 ------- 0 3.0 4.0 107 215
- 1.035 3 4 cbr 512 ------- 0 3.0 4.0 107 215
r 1.039096 1 4 cbr 512 ------- 0 1.0 4.0 105 210
r 1.039096 3 4 cbr 512 ------- 0 3.0 4.0 105 211
+ 1.04 1 4 cbr 512 ------- 0 1.0 4.0 108 216
- 1.04 1 4 cbr 512 ------- 0 1.0 4.0 108 216
+ 1.04 3 4 cbr 512 ------- 0 3.0 4.0 108 217
- 1.04 3 4 cbr 512 ------- 0 3.0 4.0 108 217
r 1.044096 1 4 cbr 512 ------- 0 1.0 4.0 106 212
r 1.044096 3 4 cbr 512 ------- 0 3.0 4.0 106 213
+ 1.045 1 4 cbr 512 ------- 0 1.0 4.0 109 218