+ 0.1 0 2 tcp 40 ------- 1 0.0 2.0 0 0
- 0.1 0 2 tcp 40 ------- 1 0.0 2.0 0 0
+ 0.1 1 2 tcp 40 ------- 2 1.0 2.1 0 1
- 0.1 1 2 tcp 40 ------- 2 1.0 2.1 0 1
+ 0.1 3 2 tcp 40 ------- 3 3.0 2.2 0 2
- 0.1 3 2 tcp 40 ------- 3 3.0 2.2 0 2
r 0.11016 0 2 tcp 40 ------- 1 0.0 2.0 0 0
+ 0.11016 2 0 ack 40 ------- 1 2.0 0.0 0 3
- 0.11016 2 0 ack 40 ------- 1 2.0 0.0 0 3
r 0.11016 1 2 tcp 40 ------- 2 1.0 2.1 0 1
+ 0.11016 2 1 ack 40 ------- 2 2.1 1.0 0 4
- 0.11016 2 1 ack 40 ------- 2 2.1 1.0 0 4
r 0.120188 3 2 tcp 40 ------- 3 3.0 2.2 0 2
+ 0.120188 2 3 ack 40 ------- 3 2.2 3.0 0 5
- 0.120188 2 3 ack 40 ------- 3 2.2 3.0 0 5
r 0.12032 2 0 ack 40 ------- 1 2.0 0.0 0 3
+ 0.12032 0 2 tcp 1040 ------- 1 0.0 2.0 1 6
- 0.12032 0 2 tcp 1040 ------- 1 0.0 2.0 1 6
+ 0.12032 0 2 tcp 1040 ------- 1 0.0 2.0 2 7
r 0.12032 2 1 ack 40 ------- 2 2.1 1.0 0 4
+ 0.12032 1 2 tcp 1040 ------- 2 1.0 2.1 1 8
- 0.12032 1 2 tcp 1040 ------- 2 1.0 2.1 1 8
+ 0.12032 1 2 tcp 1040 ------- 2 1.0 2.1 2 9
- 0.12448 0 2 tcp 1040 ------- 1 0.0 2.0 2 7
- 0.12448 1 2 tcp 1040 ------- 2 1.0 2.1 2 9
r 0.13448 0 2 tcp 1040 ------- 1 0.0 2.0 1 6
+ 0.13448 2 0 ack 40 ------- 1 2.0 0.0 1 10
- 0.13448 2 0 ack 40 ------- 1 2.0 0.0 1 10
r 0.13448 1 2 tcp 1040 ------- 2 1.0 2.1 1 8
+ 0.13448 2 1 ack 40 ------- 2 2.1 1.0 1 11
- 0.13448 2 1 ack 40 ------- 2 2.1 1.0 1 11
r 0.13864 0 2 tcp 1040 ------- 1 0.0 2.0 2 7
+ 0.13864 2 0 ack 40 ------- 1 2.0 0.0 2 12
- 0.13864 2 0 ack 40 ------- 1 2.0 0.0 2 12
r 0.13864 1 2 tcp 1040 ------- 2 1.0 2.1 2 9
+ 0.13864 2 1 ack 40 ------- 2 2.1 1.0 2 13
- 0.13864 2 1 ack 40 ------- 2 2.1 1.0 2 13
r 0.140376 2 3 ack 40 ------- 3 2.2 3.0 0 5
+ 0.140376 3 2 tcp 1040 ------- 3 3.0 2.2 1 14
- 0.140376 3 2 tcp 1040 ------- 3 3.0 2.2 1 14
+ 0.140376 3 2 tcp 1040 ------- 3 3.0 2.2 2 15
r 0.14464 2 0 ack 40 ------- 1 2.0 0.0 1 10
+ 0.14464 0 2 tcp 1040 ------- 1 0.0 2.0 3 16
- 0.14464 0 2 tcp 1040 ------- 1 0.0 2.0 3 16
+ 0.14464 0 2 tcp 1040 ------- 1 0.0 2.0 4 17
r 0.14464 2 1 ack 40 ------- 2 2.1 1.0 1 11
+ 0.14464 1 2 tcp 1040 ------- 2 1.0 2.1 3 18
- 0.14464 1 2 tcp 1040 ------- 2 1.0 2.1 3 18
+ 0.14464 1 2 tcp 1040 ------- 2 1.0 2.1 4 19
- 0.145271 3 2 tcp 1040 ------- 3 3.0 2.2 2 15
r 0.1488 2 0 ack 40 ------- 1 2.0 0.0 2 12
+ 0.1488 0 2 tcp 1040 ------- 1 0.0 2.0 5 20
+ 0.1488 0 2 tcp 1040 ------- 1 0.0 2.0 6 21
r 0.1488 2 1 ack 40 ------- 2 2.1 1.0 2 13
+ 0.1488 1 2 tcp 1040 ------- 2 1.0 2.1 5 22
+ 0.1488 1 2 tcp 1040 ------- 2 1.0 2.1 6 23
- 0.1488 0 2 tcp 1040 ------- 1 0.0 2.0 4 17
- 0.1488 1 2 tcp 1040 ------- 2 1.0 2.1 4 19
- 0.15296 0 2 tcp 1040 ------- 1 0.0 2.0 5 20
- 0.15296 1 2 tcp 1040 ------- 2 1.0 2.1 5 22
- 0.15712 0 2 tcp 1040 ------- 1 0.0 2.0 6 21
- 0.15712 1 2 tcp 1040 ------- 2 1.0 2.1 6 23
r 0.1588 0 2 tcp 1040 ------- 1 0.0 2.0 3 16
+ 0.1588 2 0 ack 40 ------- 1 2.0 0.0 3 24
- 0.1588 2 0 ack 40 ------- 1 2.0 0.0 3 24
r 0.1588 1 2 tcp 1040 ------- 2 1.0 2.1 3 18
+ 0.1588 2 1 ack 40 ------- 2 2.1 1.0 3 25
- 0.1588 2 1 ack 40 ------- 2 2.1 1.0 3 25
r 0.16296 0 2 tcp 1040 ------- 1 0.0 2.0 4 17
+ 0.16296 2 0 ack 40 ------- 1 2.0 0.0 4 26
- 0.16296 2 0 ack 40 ------- 1 2.0 0.0 4 26
r 0.16296 1 2 tcp 1040 ------- 2 1.0 2.1 4 19
+ 0.16296 2 1 ack 40 ------- 2 2.1 1.0 4 27
- 0.16296 2 1 ack 40 ------- 2 2.1 1.0 4 27
r 0.165271 3 2 tcp 1040 ------- 3 3.0 2.2 1 14
+ 0.165271 2 3 ack 40 ------- 3 2.2 3.0 1 28
- 0.165271 2 3 ack 40 ------- 3 2.2 3.0 1 28
r 0.16712 0 2 tcp 1040 ------- 1 0.0 2.0 5 20
+ 0.16712 2 0 ack 40 ------- 1 2.0 0.0 5 29
- 0.16712 2 0 ack 40 ------- 1 2.0 0.0 5 29
r 0.16712 1 2 tcp 1040 ------- 2 1.0 2.1 5 22
+ 0.16712 2 1 ack 40 ------- 2 2.1 1.0 5 30
- 0.16712 2 1 ack 40 ------- 2 2.1 1.0 5 30
r 0.16896 2 0 ack 40 ------- 1 2.0 0.0 3 24
+ 0.16896 0 2 tcp 1040 ------- 1 0.0 2.0 7 31
- 0.16896 0 2 tcp 1040 ------- 1 0.0 2.0 7 31
+ 0.16896 0 2 tcp 1040 ------- 1 0.0 2.0 8 32
r 0.16896 2 1 ack 40 ------- 2 2.1 1.0 3 25
+ 0.16896 1 2 tcp 1040 ------- 2 1.0 2.1 7 33
- 0.16896 1 2 tcp 1040 ------- 2 1.0 2.1 7 33
+ 0.16896 1 2 tcp 1040 ------- 2 1.0 2.1 8 34
r 0.170165 3 2 tcp 1040 ------- 3 3.0 2.2 2 15
+ 0.170165 2 3 ack 40 ------- 3 2.2 3.0 2 35
- 0.170165 2 3 ack 40 ------- 3 2.2 3.0 2 35
r 0.17128 0 2 tcp 1040 ------- 1 0.0 2.0 6 21
+ 0.17128 2 0 ack 40 ------- 1 2.0 0.0 6 36
- 0.17128 2 0 ack 40 ------- 1 2.0 0.0 6 36
r 0.17128 1 2 tcp 1040 ------- 2 1.0 2.1 6 23
+ 0.17128 2 1 ack 40 ------- 2 2.1 1.0 6 37
- 0.17128 2 1 ack 40 ------- 2 2.1 1.0 6 37
r 0.17312 2 0 ack 40 ------- 1 2.0 0.0 4 26
+ 0.17312 0 2 tcp 1040 ------- 1 0.0 2.0 9 38
+ 0.17312 0 2 tcp 1040 ------- 1 0.0 2.0 10 39
r 0.17312 2 1 ack 40 ------- 2 2.1 1.0 4 27
+ 0.17312 1 2 tcp 1040 ------- 2 1.0 2.1 9 40
+ 0.17312 1 2 tcp 1040 ------- 2 1.0 2.1 10 41
- 0.17312 0 2 tcp 1040 ------- 1 0.0 2.0 8 32
- 0.17312 1 2 tcp 1040 ------- 2 1.0 2.1 8 34
r 0.17728 2 0 ack 40 ------- 1 2.0 0.0 5 29
+ 0.17728 0 2 tcp 1040 ------- 1 0.0 2.0 11 42
+ 0.17728 0 2 tcp 1040 ------- 1 0.0 2.0 12 43
r 0.17728 2 1 ack 40 ------- 2 2.1 1.0 5 30
+ 0.17728 1 2 tcp 1040 ------- 2 1.0 2.1 11 44
+ 0.17728 1 2 tcp 1040 ------- 2 1.0 2.1 12 45
- 0.17728 0 2 tcp 1040 ------- 1 0.0 2.0 9 38
- 0.17728 1 2 tcp 1040 ------- 2 1.0 2.1 9 40
r 0.18144 2 0 ack 40 ------- 1 2.0 0.0 6 36
+ 0.18144 0 2 tcp 1040 ------- 1 0.0 2.0 13 46
+ 0.18144 0 2 tcp 1040 ------- 1 0.0 2.0 14 47
r 0.18144 2 1 ack 40 ------- 2 2.1 1.0 6 37
+ 0.18144 1 2 tcp 1040 ------- 2 1.0 2.1 13 48
+ 0.18144 1 2 tcp 1040 ------- 2 1.0 2.1 14 49
- 0.18144 0 2 tcp 1040 ------- 1 0.0 2.0 10 39
- 0.18144 1 2 tcp 1040 ------- 2 1.0 2.1 10 41
r 0.18312 0 2 tcp 1040 ------- 1 0.0 2.0 7 31
+ 0.18312 2 0 ack 40 ------- 1 2.0 0.0 7 50
- 0.18312 2 0 ack 40 ------- 1 2.0 0.0 7 50
r 0.18312 1 2 tcp 1040 ------- 2 1.0 2.1 7 33
+ 0.18312 2 1 ack 40 ------- 2 2.1 1.0 7 51
- 0.18312 2 1 ack 40 ------- 2 2.1 1.0 7 51
r 0.185459 2 3 ack 40 ------- 3 2.2 3.0 1 28
+ 0.185459 3 2 tcp 1040 ------- 3 3.0 2.2 3 52
- 0.185459 3 2 tcp 1040 ------- 3 3.0 2.2 3 52
+ 0.185459 3 2 tcp 1040 ------- 3 3.0 2.2 4 53
- 0.1856 0 2 tcp 1040 ------- 1 0.0 2.0 11 42
- 0.1856 1 2 tcp 1040 ------- 2 1.0 2.1 11 44
r 0.18728 0 2 tcp 1040 ------- 1 0.0 2.0 8 32
+ 0.18728 2 0 ack 40 ------- 1 2.0 0.0 8 54
- 0.18728 2 0 ack 40 ------- 1 2.0 0.0 8 54
r 0.18728 1 2 tcp 1040 ------- 2 1.0 2.1 8 34
+ 0.18728 2 1 ack 40 ------- 2 2.1 1.0 8 55
- 0.18728 2 1 ack 40 ------- 2 2.1 1.0 8 55
- 0.18976 0 2 tcp 1040 ------- 1 0.0 2.0 12 43
- 0.18976 1 2 tcp 1040 ------- 2 1.0 2.1 12 45
r 0.190353 2 3 ack 40 ------- 3 2.2 3.0 2 35
+ 0.190353 3 2 tcp 1040 ------- 3 3.0 2.2 5 56
+ 0.190353 3 2 tcp 1040 ------- 3 3.0 2.2 6 57
- 0.190353 3 2 tcp 1040 ------- 3 3.0 2.2 4 53
r 0.19144 0 2 tcp 1040 ------- 1 0.0 2.0 9 38
+ 0.19144 2 0 ack 40 ------- 1 2.0 0.0 9 58
- 0.19144 2 0 ack 40 ------- 1 2.0 0.0 9 58
r 0.19144 1 2 tcp 1040 ------- 2 1.0 2.1 9 40
+ 0.19144 2 1 ack 40 ------- 2 2.1 1.0 9 59
- 0.19144 2 1 ack 40 ------- 2 2.1 1.0 9 59
r 0.19328 2 0 ack 40 ------- 1 2.0 0.0 7 50
+ 0.19328 0 2 tcp 1040 ------- 1 0.0 2.0 15 60
+ 0.19328 0 2 tcp 1040 ------- 1 0.0 2.0 16 61
r 0.19328 2 1 ack 40 ------- 2 2.1 1.0 7 51
+ 0.19328 1 2 tcp 1040 ------- 2 1.0 2.1 15 62
+ 0.19328 1 2 tcp 1040 ------- 2 1.0 2.1 16 63
- 0.19392 0 2 tcp 1040 ------- 1 0.0 2.0 13 46
- 0.19392 1 2 tcp 1040 ------- 2 1.0 2.1 13 48
- 0.195247 3 2 tcp 1040 ------- 3 3.0 2.2 5 56
r 0.1956 0 2 tcp 1040 ------- 1 0.0 2.0 10 39
+ 0.1956 2 0 ack 40 ------- 1 2.0 0.0 10 64
- 0.1956 2 0 ack 40 ------- 1 2.0 0.0 10 64
r 0.1956 1 2 tcp 1040 ------- 2 1.0 2.1 10 41
+ 0.1956 2 1 ack 40 ------- 2 2.1 1.0 10 65
- 0.1956 2 1 ack 40 ------- 2 2.1 1.0 10 65
r 0.19744 2 0 ack 40 ------- 1 2.0 0.0 8 54
+ 0.19744 0 2 tcp 1040 ------- 1 0.0 2.0 17 66
+ 0.19744 0 2 tcp 1040 ------- 1 0.0 2.0 18 67
r 0.19744 2 1 ack 40 ------- 2 2.1 1.0 8 55
+ 0.19744 1 2 tcp 1040 ------- 2 1.0 2.1 17 68
+ 0.19744 1 2 tcp 1040 ------- 2 1.0 2.1 18 69
- 0.19808 0 2 tcp 1040 ------- 1 0.0 2.0 14 47
- 0.19808 1 2 tcp 1040 ------- 2 1.0 2.1 14 49
r 0.19976 0 2 tcp 1040 ------- 1 0.0 2.0 11 42
+ 0.19976 2 0 ack 40 ------- 1 2.0 0.0 11 70
- 0.19976 2 0 ack 40 ------- 1 2.0 0.0 11 70
r 0.19976 1 2 tcp 1040 ------- 2 1.0 2.1 11 44
+ 0.19976 2 1 ack 40 ------- 2 2.1 1.0 11 71
- 0.19976 2 1 ack 40 ------- 2 2.1 1.0 11 71
- 0.200141 3 2 tcp 1040 ------- 3 3.0 2.2 6 57
r 0.2016 2 0 ack 40 ------- 1 2.0 0.0 9 58
+ 0.2016 0 2 tcp 1040 ------- 1 0.0 2.0 19 72
+ 0.2016 0 2 tcp 1040 ------- 1 0.0 2.0 20 73
r 0.2016 2 1 ack 40 ------- 2 2.1 1.0 9 59
+ 0.2016 1 2 tcp 1040 ------- 2 1.0 2.1 19 74
+ 0.2016 1 2 tcp 1040 ------- 2 1.0 2.1 20 75
- 0.20224 0 2 tcp 1040 ------- 1 0.0 2.0 15 60
- 0.20224 1 2 tcp 1040 ------- 2 1.0 2.1 15 62
r 0.20392 0 2 tcp 1040 ------- 1 0.0 2.0 12 43
+ 0.20392 2 0 ack 40 ------- 1 2.0 0.0 12 76
- 0.20392 2 0 ack 40 ------- 1 2.0 0.0 12 76
r 0.20392 1 2 tcp 1040 ------- 2 1.0 2.1 12 45
+ 0.20392 2 1 ack 40 ------- 2 2.1 1.0 12 77
- 0.20392 2 1 ack 40 ------- 2 2.1 1.0 12 77
r 0.20576 2 0 ack 40 ------- 1 2.0 0.0 10 64
+ 0.20576 0 2 tcp 1040 ------- 1 0.0 2.0 21 78
+ 0.20576 0 2 tcp 1040 ------- 1 0.0 2.0 22 79
r 0.20576 2 1 ack 40 ------- 2 2.1 1.0 10 65
+ 0.20576 1 2 tcp 1040 ------- 2 1.0 2.1 21 80
+ 0.20576 1 2 tcp 1040 ------- 2 1.0 2.1 22 81
- 0.2064 0 2 tcp 1040 ------- 1 0.0 2.0 16 61
- 0.2064 1 2 tcp 1040 ------- 2 1.0 2.1 16 63
r 0.20808 0 2 tcp 1040 ------- 1 0.0 2.0 13 46
+ 0.20808 2 0 ack 40 ------- 1 2.0 0.0 13 82
- 0.20808 2 0 ack 40 ------- 1 2.0 0.0 13 82
r 0.20808 1 2 tcp 1040 ------- 2 1.0 2.1 13 48
+ 0.20808 2 1 ack 40 ------- 2 2.1 1.0 13 83
- 0.20808 2 1 ack 40 ------- 2 2.1 1.0 13 83
r 0.20992 2 0 ack 40 ------- 1 2.0 0.0 11 70
+ 0.20992 0 2 tcp 1040 ------- 1 0.0 2.0 23 84
+ 0.20992 0 2 tcp 1040 ------- 1 0.0 2.0 24 85
r 0.20992 2 1 ack 40 ------- 2 2.1 1.0 11 71
+ 0.20992 1 2 tcp 1040 ------- 2 1.0 2.1 23 86
+ 0.20992 1 2 tcp 1040 ------- 2 1.0 2.1 24 87
r 0.210353 3 2 tcp 1040 ------- 3 3.0 2.2 3 52
+ 0.210353 2 3 ack 40 ------- 3 2.2 3.0 3 88
- 0.210353 2 3 ack 40 ------- 3 2.2 3.0 3 88
- 0.21056 0 2 tcp 1040 ------- 1 0.0 2.0 17 66
- 0.21056 1 2 tcp 1040 ------- 2 1.0 2.1 17 68
r 0.21224 0 2 tcp 1040 ------- 1 0.0 2.0 14 47
+ 0.21224 2 0 ack 40 ------- 1 2.0 0.0 14 89
- 0.21224 2 0 ack 40 ------- 1 2.0 0.0 14 89
r 0.21224 1 2 tcp 1040 ------- 2 1.0 2.1 14 49
+ 0.21224 2 1 ack 40 ------- 2 2.1 1.0 14 90
- 0.21224 2 1 ack 40 ------- 2 2.1 1.0 14 90
r 0.21408 2 0 ack 40 ------- 1 2.0 0.0 12 76
+ 0.21408 0 2 tcp 1040 ------- 1 0.0 2.0 25 91
+ 0.21408 0 2 tcp 1040 ------- 1 0.0 2.0 26 92
r 0.21408 2 1 ack 40 ------- 2 2.1 1.0 12 77
+ 0.21408 1 2 tcp 1040 ------- 2 1.0 2.1 25 93
+ 0.21408 1 2 tcp 1040 ------- 2 1.0 2.1 26 94
- 0.21472 0 2 tcp 1040 ------- 1 0.0 2.0 18 67
- 0.21472 1 2 tcp 1040 ------- 2 1.0 2.1 18 69
r 0.215247 3 2 tcp 1040 ------- 3 3.0 2.2 4 53
+ 0.215247 2 3 ack 40 ------- 3 2.2 3.0 4 95
- 0.215247 2 3 ack 40 ------- 3 2.2 3.0 4 95
r 0.2164 0 2 tcp 1040 ------- 1 0.0 2.0 15 60
+ 0.2164 2 0 ack 40 ------- 1 2.0 0.0 15 96
- 0.2164 2 0 ack 40 ------- 1 2.0 0.0 15 96
r 0.2164 1 2 tcp 1040 ------- 2 1.0 2.1 15 62
+ 0.2164 2 1 ack 40 ------- 2 2.1 1.0 15 97
- 0.2164 2 1 ack 40 ------- 2 2.1 1.0 15 97
r 0.21824 2 0 ack 40 ------- 1 2.0 0.0 13 82
+ 0.21824 0 2 tcp 1040 ------- 1 0.0 2.0 27 98
+ 0.21824 0 2 tcp 1040 ------- 1 0.0 2.0 28 99
r 0.21824 2 1 ack 40 ------- 2 2.1 1.0 13 83
+ 0.21824 1 2 tcp 1040 ------- 2 1.0 2.1 27 100
+ 0.21824 1 2 tcp 1040 ------- 2 1.0 2.1 28 101
- 0.21888 0 2 tcp 1040 ------- 1 0.0 2.0 19 72
- 0.21888 1 2 tcp 1040 ------- 2 1.0 2.1 19 74
r 0.220141 3 2 tcp 1040 ------- 3 3.0 2.2 5 56
+ 0.220141 2 3 ack 40 ------- 3 2.2 3.0 5 102
- 0.220141 2 3 ack 40 ------- 3 2.2 3.0 5 102
r 0.22056 0 2 tcp 1040 ------- 1 0.0 2.0 16 61
+ 0.22056 2 0 ack 40 ------- 1 2.0 0.0 16 103
- 0.22056 2 0 ack 40 ------- 1 2.0 0.0 16 103
r 0.22056 1 2 tcp 1040 ------- 2 1.0 2.1 16 63
+ 0.22056 2 1 ack 40 ------- 2 2.1 1.0 16 104
- 0.22056 2 1 ack 40 ------- 2 2.1 1.0 16 104
r 0.2224 2 0 ack 40 ------- 1 2.0 0.0 14 89
+ 0.2224 0 2 tcp 1040 ------- 1 0.0 2.0 29 105
+ 0.2224 0 2 tcp 1040 ------- 1 0.0 2.0 30 106
r 0.2224 2 1 ack 40 ------- 2 2.1 1.0 14 90
+ 0.2224 1 2 tcp 1040 ------- 2 1.0 2.1 29 107
+ 0.2224 1 2 tcp 1040 ------- 2 1.0 2.1 30 108
- 0.22304 0 2 tcp 1040 ------- 1 0.0 2.0 20 73
- 0.22304 1 2 tcp 1040 ------- 2 1.0 2.1 20 75
r 0.22472 0 2 tcp 1040 ------- 1 0.0 2.0 17 66
+ 0.22472 2 0 ack 40 ------- 1 2.0 0.0 17 109
- 0.22472 2 0 ack 40 ------- 1 2.0 0.0 17 109
r 0.22472 1 2 tcp 1040 ------- 2 1.0 2.1 17 68
+ 0.22472 2 1 ack 40 ------- 2 2.1 1.0 17 110
- 0.22472 2 1 ack 40 ------- 2 2.1 1.0 17 110
r 0.225035 3 2 tcp 1040 ------- 3 3.0 2.2 6 57
+ 0.225035 2 3 ack 40 ------- 3 2.2 3.0 6 111
- 0.225035 2 3 ack 40 ------- 3 2.2 3.0 6 111
r 0.22656 2 0 ack 40 ------- 1 2.0 0.0 15 96
+ 0.22656 0 2 tcp 1040 ------- 1 0.0 2.0 31 112
+ 0.22656 0 2 tcp 1040 ------- 1 0.0 2.0 32 113
r 0.22656 2 1 ack 40 ------- 2 2.1 1.0 15 97
+ 0.22656 1 2 tcp 1040 ------- 2 1.0 2.1 31 114
+ 0.22656 1 2 tcp 1040 ------- 2 1.0 2.1 32 115
- 0.2272 0 2 tcp 1040 ------- 1 0.0 2.0 21 78
- 0.2272 1 2 tcp 1040 ------- 2 1.0 2.1 21 80
r 0.22888 0 2 tcp 1040 ------- 1 0.0 2.0 18 67
+ 0.22888 2 0 ack 40 ------- 1 2.0 0.0 18 116
- 0.22888 2 0 ack 40 ------- 1 2.0 0.0 18 116
r 0.22888 1 2 tcp 1040 ------- 2 1.0 2.1 18 69
+ 0.22888 2 1 ack 40 ------- 2 2.1 1.0 18 117
- 0.22888 2 1 ack 40 ------- 2 2.1 1.0 18 117
r 0.230541 2 3 ack 40 ------- 3 2.2 3.0 3 88
+ 0.230541 3 2 tcp 1040 ------- 3 3.0 2.2 7 118
- 0.230541 3 2 tcp 1040 ------- 3 3.0 2.2 7 118
+ 0.230541 3 2 tcp 1040 ------- 3 3.0 2.2 8 119
r 0.23072 2 0 ack 40 ------- 1 2.0 0.0 16 103
+ 0.23072 0 2 tcp 1040 ------- 1 0.0 2.0 33 120
+ 0.23072 0 2 tcp 1040 ------- 1 0.0 2.0 34 121
r 0.23072 2 1 ack 40 ------- 2 2.1 1.0 16 104
+ 0.23072 1 2 tcp 1040 ------- 2 1.0 2.1 33 122
+ 0.23072 1 2 tcp 1040 ------- 2 1.0 2.1 34 123
- 0.23136 0 2 tcp 1040 ------- 1 0.0 2.0 22 79
- 0.23136 1 2 tcp 1040 ------- 2 1.0 2.1 22 81
r 0.23304 0 2 tcp 1040 ------- 1 0.0 2.0 19 72
+ 0.23304 2 0 ack 40 ------- 1 2.0 0.0 19 124
- 0.23304 2 0 ack 40 ------- 1 2.0 0.0 19 124
r 0.23304 1 2 tcp 1040 ------- 2 1.0 2.1 19 74
+ 0.23304 2 1 ack 40 ------- 2 2.1 1.0 19 125
- 0.23304 2 1 ack 40 ------- 2 2.1 1.0 19 125
r 0.23488 2 0 ack 40 ------- 1 2.0 0.0 17 109
+ 0.23488 0 2 tcp 1040 ------- 1 0.0 2.0 35 126
+ 0.23488 0 2 tcp 1040 ------- 1 0.0 2.0 36 127
r 0.23488 2 1 ack 40 ------- 2 2.1 1.0 17 110
+ 0.23488 1 2 tcp 1040 ------- 2 1.0 2.1 35 128
+ 0.23488 1 2 tcp 1040 ------- 2 1.0 2.1 36 129
r 0.235435 2 3 ack 40 ------- 3 2.2 3.0 4 95
+ 0.235435 3 2 tcp 1040 ------- 3 3.0 2.2 9 130
+ 0.235435 3 2 tcp 1040 ------- 3 3.0 2.2 10 131
- 0.235435 3 2 tcp 1040 ------- 3 3.0 2.2 8 119
- 0.23552 0 2 tcp 1040 ------- 1 0.0 2.0 23 84
- 0.23552 1 2 tcp 1040 ------- 2 1.0 2.1 23 86
r 0.2372 0 2 tcp 1040 ------- 1 0.0 2.0 20 73
+ 0.2372 2 0 ack 40 ------- 1 2.0 0.0 20 132
- 0.2372 2 0 ack 40 ------- 1 2.0 0.0 20 132
r 0.2372 1 2 tcp 1040 ------- 2 1.0 2.1 20 75
+ 0.2372 2 1 ack 40 ------- 2 2.1 1.0 20 133
- 0.2372 2 1 ack 40 ------- 2 2.1 1.0 20 133
r 0.23904 2 0 ack 40 ------- 1 2.0 0.0 18 116
+ 0.23904 0 2 tcp 1040 ------- 1 0.0 2.0 37 134
+ 0.23904 0 2 tcp 1040 ------- 1 0.0 2.0 38 135
r 0.23904 2 1 ack 40 ------- 2 2.1 1.0 18 117
+ 0.23904 1 2 tcp 1040 ------- 2 1.0 2.1 37 136
+ 0.23904 1 2 tcp 1040 ------- 2 1.0 2.1 38 137
- 0.23968 0 2 tcp 1040 ------- 1 0.0 2.0 24 85
- 0.23968 1 2 tcp 1040 ------- 2 1.0 2.1 24 87
r 0.240329 2 3 ack 40 ------- 3 2.2 3.0 5 102
+ 0.240329 3 2 tcp 1040 ------- 3 3.0 2.2 11 138
+ 0.240329 3 2 tcp 1040 ------- 3 3.0 2.2 12 139
- 0.240329 3 2 tcp 1040 ------- 3 3.0 2.2 9 130
r 0.24136 0 2 tcp 1040 ------- 1 0.0 2.0 21 78
+ 0.24136 2 0 ack 40 ------- 1 2.0 0.0 21 140
- 0.24136 2 0 ack 40 ------- 1 2.0 0.0 21 140
r 0.24136 1 2 tcp 1040 ------- 2 1.0 2.1 21 80
+ 0.24136 2 1 ack 40 ------- 2 2.1 1.0 21 141
- 0.24136 2 1 ack 40 ------- 2 2.1 1.0 21 141
r 0.2432 2 0 ack 40 ------- 1 2.0 0.0 19 124
+ 0.2432 0 2 tcp 1040 ------- 1 0.0 2.0 39 142
r 0.2432 2 1 ack 40 ------- 2 2.1 1.0 19 125
+ 0.2432 1 2 tcp 1040 ------- 2 1.0 2.1 39 143
- 0.24384 0 2 tcp 1040 ------- 1 0.0 2.0 25 91
- 0.24384 1 2 tcp 1040 ------- 2 1.0 2.1 25 93
r 0.245224 2 3 ack 40 ------- 3 2.2 3.0 6 111
+ 0.245224 3 2 tcp 1040 ------- 3 3.0 2.2 13 144
+ 0.245224 3 2 tcp 1040 ------- 3 3.0 2.2 14 145
- 0.245224 3 2 tcp 1040 ------- 3 3.0 2.2 10 131
r 0.24552 0 2 tcp 1040 ------- 1 0.0 2.0 22 79
+ 0.24552 2 0 ack 40 ------- 1 2.0 0.0 22 146
- 0.24552 2 0 ack 40 ------- 1 2.0 0.0 22 146
r 0.24552 1 2 tcp 1040 ------- 2 1.0 2.1 22 81
+ 0.24552 2 1 ack 40 ------- 2 2.1 1.0 22 147
- 0.24552 2 1 ack 40 ------- 2 2.1 1.0 22 147
r 0.24736 2 0 ack 40 ------- 1 2.0 0.0 20 132
+ 0.24736 0 2 tcp 1040 ------- 1 0.0 2.0 40 148
r 0.24736 2 1 ack 40 ------- 2 2.1 1.0 20 133
+ 0.24736 1 2 tcp 1040 ------- 2 1.0 2.1 40 149
- 0.248 0 2 tcp 1040 ------- 1 0.0 2.0 26 92
- 0.248 1 2 tcp 1040 ------- 2 1.0 2.1 26 94
r 0.24968 0 2 tcp 1040 ------- 1 0.0 2.0 23 84
+ 0.24968 2 0 ack 40 ------- 1 2.0 0.0 23 150
- 0.24968 2 0 ack 40 ------- 1 2.0 0.0 23 150
r 0.24968 1 2 tcp 1040 ------- 2 1.0 2.1 23 86
+ 0.24968 2 1 ack 40 ------- 2 2.1 1.0 23 151
- 0.24968 2 1 ack 40 ------- 2 2.1 1.0 23 151
- 0.250118 3 2 tcp 1040 ------- 3 3.0 2.2 11 138
r 0.25152 2 0 ack 40 ------- 1 2.0 0.0 21 140
+ 0.25152 0 2 tcp 1040 ------- 1 0.0 2.0 41 152
r 0.25152 2 1 ack 40 ------- 2 2.1 1.0 21 141
+ 0.25152 1 2 tcp 1040 ------- 2 1.0 2.1 41 153
- 0.25216 0 2 tcp 1040 ------- 1 0.0 2.0 27 98
- 0.25216 1 2 tcp 1040 ------- 2 1.0 2.1 27 100
r 0.25384 0 2 tcp 1040 ------- 1 0.0 2.0 24 85
+ 0.25384 2 0 ack 40 ------- 1 2.0 0.0 24 154
- 0.25384 2 0 ack 40 ------- 1 2.0 0.0 24 154
r 0.25384 1 2 tcp 1040 ------- 2 1.0 2.1 24 87
+ 0.25384 2 1 ack 40 ------- 2 2.1 1.0 24 155
- 0.25384 2 1 ack 40 ------- 2 2.1 1.0 24 155
- 0.255012 3 2 tcp 1040 ------- 3 3.0 2.2 12 139
r 0.255435 3 2 tcp 1040 ------- 3 3.0 2.2 7 118
+ 0.255435 2 3 ack 40 ------- 3 2.2 3.0 7 156
- 0.255435 2 3 ack 40 ------- 3 2.2 3.0 7 156
r 0.25568 2 0 ack 40 ------- 1 2.0 0.0 22 146
+ 0.25568 0 2 tcp 1040 ------- 1 0.0 2.0 42 157
r 0.25568 2 1 ack 40 ------- 2 2.1 1.0 22 147
+ 0.25568 1 2 tcp 1040 ------- 2 1.0 2.1 42 158
- 0.25632 0 2 tcp 1040 ------- 1 0.0 2.0 28 99
- 0.25632 1 2 tcp 1040 ------- 2 1.0 2.1 28 101
r 0.258 0 2 tcp 1040 ------- 1 0.0 2.0 25 91
+ 0.258 2 0 ack 40 ------- 1 2.0 0.0 25 159
- 0.258 2 0 ack 40 ------- 1 2.0 0.0 25 159
r 0.258 1 2 tcp 1040 ------- 2 1.0 2.1 25 93
+ 0.258 2 1 ack 40 ------- 2 2.1 1.0 25 160
- 0.258 2 1 ack 40 ------- 2 2.1 1.0 25 160
r 0.25984 2 0 ack 40 ------- 1 2.0 0.0 23 150
+ 0.25984 0 2 tcp 1040 ------- 1 0.0 2.0 43 161
r 0.25984 2 1 ack 40 ------- 2 2.1 1.0 23 151
+ 0.25984 1 2 tcp 1040 ------- 2 1.0 2.1 43 162
- 0.259906 3 2 tcp 1040 ------- 3 3.0 2.2 13 144
r 0.260329 3 2 tcp 1040 ------- 3 3.0 2.2 8 119
+ 0.260329 2 3 ack 40 ------- 3 2.2 3.0 8 163
- 0.260329 2 3 ack 40 ------- 3 2.2 3.0 8 163
- 0.26048 0 2 tcp 1040 ------- 1 0.0 2.0 29 105
- 0.26048 1 2 tcp 1040 ------- 2 1.0 2.1 29 107
r 0.26216 0 2 tcp 1040 ------- 1 0.0 2.0 26 92
+ 0.26216 2 0 ack 40 ------- 1 2.0 0.0 26 164
- 0.26216 2 0 ack 40 ------- 1 2.0 0.0 26 164
r 0.26216 1 2 tcp 1040 ------- 2 1.0 2.1 26 94
+ 0.26216 2 1 ack 40 ------- 2 2.1 1.0 26 165
- 0.26216 2 1 ack 40 ------- 2 2.1 1.0 26 165
r 0.264 2 0 ack 40 ------- 1 2.0 0.0 24 154
+ 0.264 0 2 tcp 1040 ------- 1 0.0 2.0 44 166
r 0.264 2 1 ack 40 ------- 2 2.1 1.0 24 155
+ 0.264 1 2 tcp 1040 ------- 2 1.0 2.1 44 167
- 0.26464 0 2 tcp 1040 ------- 1 0.0 2.0 30 106
- 0.26464 1 2 tcp 1040 ------- 2 1.0 2.1 30 108
- 0.2648 3 2 tcp 1040 ------- 3 3.0 2.2 14 145
r 0.265224 3 2 tcp 1040 ------- 3 3.0 2.2 9 130
+ 0.265224 2 3 ack 40 ------- 3 2.2 3.0 9 168
- 0.265224 2 3 ack 40 ------- 3 2.2 3.0 9 168
r 0.26632 0 2 tcp 1040 ------- 1 0.0 2.0 27 98
+ 0.26632 2 0 ack 40 ------- 1 2.0 0.0 27 169
- 0.26632 2 0 ack 40 ------- 1 2.0 0.0 27 169
r 0.26632 1 2 tcp 1040 ------- 2 1.0 2.1 27 100
+ 0.26632 2 1 ack 40 ------- 2 2.1 1.0 27 170
- 0.26632 2 1 ack 40 ------- 2 2.1 1.0 27 170
r 0.26816 2 0 ack 40 ------- 1 2.0 0.0 25 159
+ 0.26816 0 2 tcp 1040 ------- 1 0.0 2.0 45 171
r 0.26816 2 1 ack 40 ------- 2 2.1 1.0 25 160
+ 0.26816 1 2 tcp 1040 ------- 2 1.0 2.1 45 172
- 0.2688 0 2 tcp 1040 ------- 1 0.0 2.0 31 112
- 0.2688 1 2 tcp 1040 ------- 2 1.0 2.1 31 114
r 0.270118 3 2 tcp 1040 ------- 3 3.0 2.2 10 131
+ 0.270118 2 3 ack 40 ------- 3 2.2 3.0 10 173
- 0.270118 2 3 ack 40 ------- 3 2.2 3.0 10 173
r 0.27048 0 2 tcp 1040 ------- 1 0.0 2.0 28 99
+ 0.27048 2 0 ack 40 ------- 1 2.0 0.0 28 174
- 0.27048 2 0 ack 40 ------- 1 2.0 0.0 28 174
r 0.27048 1 2 tcp 1040 ------- 2 1.0 2.1 28 101
+ 0.27048 2 1 ack 40 ------- 2 2.1 1.0 28 175
- 0.27048 2 1 ack 40 ------- 2 2.1 1.0 28 175
r 0.27232 2 0 ack 40 ------- 1 2.0 0.0 26 164
+ 0.27232 0 2 tcp 1040 ------- 1 0.0 2.0 46 176
r 0.27232 2 1 ack 40 ------- 2 2.1 1.0 26 165
+ 0.27232 1 2 tcp 1040 ------- 2 1.0 2.1 46 177
- 0.27296 0 2 tcp 1040 ------- 1 0.0 2.0 32 113
- 0.27296 1 2 tcp 1040 ------- 2 1.0 2.1 32 115
r 0.27464 0 2 tcp 1040 ------- 1 0.0 2.0 29 105
+ 0.27464 2 0 ack 40 ------- 1 2.0 0.0 29 178
- 0.27464 2 0 ack 40 ------- 1 2.0 0.0 29 178
r 0.27464 1 2 tcp 1040 ------- 2 1.0 2.1 29 107
+ 0.27464 2 1 ack 40 ------- 2 2.1 1.0 29 179
- 0.27464 2 1 ack 40 ------- 2 2.1 1.0 29 179
r 0.275012 3 2 tcp 1040 ------- 3 3.0 2.2 11 138
+ 0.275012 2 3 ack 40 ------- 3 2.2 3.0 11 180
- 0.275012 2 3 ack 40 ------- 3 2.2 3.0 11 180
r 0.275624 2 3 ack 40 ------- 3 2.2 3.0 7 156
+ 0.275624 3 2 tcp 1040 ------- 3 3.0 2.2 15 181
- 0.275624 3 2 tcp 1040 ------- 3 3.0 2.2 15 181
+ 0.275624 3 2 tcp 1040 ------- 3 3.0 2.2 16 182
r 0.27648 2 0 ack 40 ------- 1 2.0 0.0 27 169
+ 0.27648 0 2 tcp 1040 ------- 1 0.0 2.0 47 183
r 0.27648 2 1 ack 40 ------- 2 2.1 1.0 27 170
+ 0.27648 1 2 tcp 1040 ------- 2 1.0 2.1 47 184
- 0.27712 0 2 tcp 1040 ------- 1 0.0 2.0 33 120
- 0.27712 1 2 tcp 1040 ------- 2 1.0 2.1 33 122
r 0.2788 0 2 tcp 1040 ------- 1 0.0 2.0 30 106
+ 0.2788 2 0 ack 40 ------- 1 2.0 0.0 30 185
- 0.2788 2 0 ack 40 ------- 1 2.0 0.0 30 185
r 0.2788 1 2 tcp 1040 ------- 2 1.0 2.1 30 108
+ 0.2788 2 1 ack 40 ------- 2 2.1 1.0 30 186
- 0.2788 2 1 ack 40 ------- 2 2.1 1.0 30 186
r 0.279906 3 2 tcp 1040 ------- 3 3.0 2.2 12 139
+ 0.279906 2 3 ack 40 ------- 3 2.2 3.0 12 187
- 0.279906 2 3 ack 40 ------- 3 2.2 3.0 12 187
r 0.280518 2 3 ack 40 ------- 3 2.2 3.0 8 163
+ 0.280518 3 2 tcp 1040 ------- 3 3.0 2.2 17 188
+ 0.280518 3 2 tcp 1040 ------- 3 3.0 2.2 18 189
- 0.280518 3 2 tcp 1040 ------- 3 3.0 2.2 16 182
r 0.28064 2 0 ack 40 ------- 1 2.0 0.0 28 174
+ 0.28064 0 2 tcp 1040 ------- 1 0.0 2.0 48 190
r 0.28064 2 1 ack 40 ------- 2 2.1 1.0 28 175
+ 0.28064 1 2 tcp 1040 ------- 2 1.0 2.1 48 191
- 0.28128 0 2 tcp 1040 ------- 1 0.0 2.0 34 121
- 0.28128 1 2 tcp 1040 ------- 2 1.0 2.1 34 123
r 0.28296 0 2 tcp 1040 ------- 1 0.0 2.0 31 112
+ 0.28296 2 0 ack 40 ------- 1 2.0 0.0 31 192
- 0.28296 2 0 ack 40 ------- 1 2.0 0.0 31 192
r 0.28296 1 2 tcp 1040 ------- 2 1.0 2.1 31 114
+ 0.28296 2 1 ack 40 ------- 2 2.1 1.0 31 193
- 0.28296 2 1 ack 40 ------- 2 2.1 1.0 31 193
r 0.2848 3 2 tcp 1040 ------- 3 3.0 2.2 13 144
+ 0.2848 2 3 ack 40 ------- 3 2.2 3.0 13 194
- 0.2848 2 3 ack 40 ------- 3 2.2 3.0 13 194
r 0.2848 2 0 ack 40 ------- 1 2.0 0.0 29 178
+ 0.2848 0 2 tcp 1040 ------- 1 0.0 2.0 49 195
r 0.2848 2 1 ack 40 ------- 2 2.1 1.0 29 179
+ 0.2848 1 2 tcp 1040 ------- 2 1.0 2.1 49 196
r 0.285412 2 3 ack 40 ------- 3 2.2 3.0 9 168
+ 0.285412 3 2 tcp 1040 ------- 3 3.0 2.2 19 197
+ 0.285412 3 2 tcp 1040 ------- 3 3.0 2.2 20 198
- 0.285412 3 2 tcp 1040 ------- 3 3.0 2.2 17 188
- 0.28544 0 2 tcp 1040 ------- 1 0.0 2.0 35 126
- 0.28544 1 2 tcp 1040 ------- 2 1.0 2.1 35 128
r 0.28712 0 2 tcp 1040 ------- 1 0.0 2.0 32 113
+ 0.28712 2 0 ack 40 ------- 1 2.0 0.0 32 199
- 0.28712 2 0 ack 40 ------- 1 2.0 0.0 32 199
r 0.28712 1 2 tcp 1040 ------- 2 1.0 2.1 32 115
+ 0.28712 2 1 ack 40 ------- 2 2.1 1.0 32 200
- 0.28712 2 1 ack 40 ------- 2 2.1 1.0 32 200
r 0.28896 2 0 ack 40 ------- 1 2.0 0.0 30 185
+ 0.28896 0 2 tcp 1040 ------- 1 0.0 2.0 50 201
r 0.28896 2 1 ack 40 ------- 2 2.1 1.0 30 186
+ 0.28896 1 2 tcp 1040 ------- 2 1.0 2.1 50 202
- 0.2896 0 2 tcp 1040 ------- 1 0.0 2.0 36 127
- 0.2896 1 2 tcp 1040 ------- 2 1.0 2.1 36 129
r 0.289694 3 2 tcp 1040 ------- 3 3.0 2.2 14 145
+ 0.289694 2 3 ack 40 ------- 3 2.2 3.0 14 203
- 0.289694 2 3 ack 40 ------- 3 2.2 3.0 14 203
r 0.290306 2 3 ack 40 ------- 3 2.2 3.0 10 173
+ 0.290306 3 2 tcp 1040 ------- 3 3.0 2.2 21 204
+ 0.290306 3 2 tcp 1040 ------- 3 3.0 2.2 22 205
- 0.290306 3 2 tcp 1040 ------- 3 3.0 2.2 18 189
r 0.29128 0 2 tcp 1040 ------- 1 0.0 2.0 33 120
+ 0.29128 2 0 ack 40 ------- 1 2.0 0.0 33 206
- 0.29128 2 0 ack 40 ------- 1 2.0 0.0 33 206
r 0.29128 1 2 tcp 1040 ------- 2 1.0 2.1 33 122
+ 0.29128 2 1 ack 40 ------- 2 2.1 1.0 33 207
- 0.29128 2 1 ack 40 ------- 2 2.1 1.0 33 207
r 0.29312 2 0 ack 40 ------- 1 2.0 0.0 31 192
+ 0.29312 0 2 tcp 1040 ------- 1 0.0 2.0 51 208
r 0.29312 2 1 ack 40 ------- 2 2.1 1.0 31 193
+ 0.29312 1 2 tcp 1040 ------- 2 1.0 2.1 51 209
- 0.29376 0 2 tcp 1040 ------- 1 0.0 2.0 37 134
- 0.29376 1 2 tcp 1040 ------- 2 1.0 2.1 37 136
r 0.2952 2 3 ack 40 ------- 3 2.2 3.0 11 180
+ 0.2952 3 2 tcp 1040 ------- 3 3.0 2.2 23 210
+ 0.2952 3 2 tcp 1040 ------- 3 3.0 2.2 24 211
- 0.2952 3 2 tcp 1040 ------- 3 3.0 2.2 19 197
r 0.29544 0 2 tcp 1040 ------- 1 0.0 2.0 34 121
+ 0.29544 2 0 ack 40 ------- 1 2.0 0.0 34 212
- 0.29544 2 0 ack 40 ------- 1 2.0 0.0 34 212
r 0.29544 1 2 tcp 1040 ------- 2 1.0 2.1 34 123
+ 0.29544 2 1 ack 40 ------- 2 2.1 1.0 34 213
- 0.29544 2 1 ack 40 ------- 2 2.1 1.0 34 213
r 0.29728 2 0 ack 40 ------- 1 2.0 0.0 32 199
+ 0.29728 0 2 tcp 1040 ------- 1 0.0 2.0 52 214
r 0.29728 2 1 ack 40 ------- 2 2.1 1.0 32 200
+ 0.29728 1 2 tcp 1040 ------- 2 1.0 2.1 52 215
- 0.29792 0 2 tcp 1040 ------- 1 0.0 2.0 38 135
- 0.29792 1 2 tcp 1040 ------- 2 1.0 2.1 38 137
r 0.2996 0 2 tcp 1040 ------- 1 0.0 2.0 35 126
+ 0.2996 2 0 ack 40 ------- 1 2.0 0.0 35 216
- 0.2996 2 0 ack 40 ------- 1 2.0 0.0 35 216
r 0.2996 1 2 tcp 1040 ------- 2 1.0 2.1 35 128
+ 0.2996 2 1 ack 40 ------- 2 2.1 1.0 35 217
- 0.2996 2 1 ack 40 ------- 2 2.1 1.0 35 217
r 0.300094 2 3 ack 40 ------- 3 2.2 3.0 12 187
+ 0.300094 3 2 tcp 1040 ------- 3 3.0 2.2 25 218
+ 0.300094 3 2 tcp 1040 ------- 3 3.0 2.2 26 219
- 0.300094 3 2 tcp 1040 ------- 3 3.0 2.2 20 198
r 0.300518 3 2 tcp 1040 ------- 3 3.0 2.2 15 181
+ 0.300518 2 3 ack 40 ------- 3 2.2 3.0 15 220
- 0.300518 2 3 ack 40 ------- 3 2.2 3.0 15 220
r 0.30144 2 0 ack 40 ------- 1 2.0 0.0 33 206
+ 0.30144 0 2 tcp 1040 ------- 1 0.0 2.0 53 221
r 0.30144 2 1 ack 40 ------- 2 2.1 1.0 33 207
+ 0.30144 1 2 tcp 1040 ------- 2 1.0 2.1 53 222
- 0.30208 0 2 tcp 1040 ------- 1 0.0 2.0 39 142
- 0.30208 1 2 tcp 1040 ------- 2 1.0 2.1 39 143
r 0.30376 0 2 tcp 1040 ------- 1 0.0 2.0 36 127
+ 0.30376 2 0 ack 40 ------- 1 2.0 0.0 36 223
- 0.30376 2 0 ack 40 ------- 1 2.0 0.0 36 223
r 0.30376 1 2 tcp 1040 ------- 2 1.0 2.1 36 129
+ 0.30376 2 1 ack 40 ------- 2 2.1 1.0 36 224
- 0.30376 2 1 ack 40 ------- 2 2.1 1.0 36 224
r 0.304988 2 3 ack 40 ------- 3 2.2 3.0 13 194
+ 0.304988 3 2 tcp 1040 ------- 3 3.0 2.2 27 225
+ 0.304988 3 2 tcp 1040 ------- 3 3.0 2.2 28 226
- 0.304988 3 2 tcp 1040 ------- 3 3.0 2.2 21 204
r 0.305412 3 2 tcp 1040 ------- 3 3.0 2.2 16 182
+ 0.305412 2 3 ack 40 ------- 3 2.2 3.0 16 227
- 0.305412 2 3 ack 40 ------- 3 2.2 3.0 16 227
r 0.3056 2 0 ack 40 ------- 1 2.0 0.0 34 212
+ 0.3056 0 2 tcp 1040 ------- 1 0.0 2.0 54 228
r 0.3056 2 1 ack 40 ------- 2 2.1 1.0 34 213
+ 0.3056 1 2 tcp 1040 ------- 2 1.0 2.1 54 229
- 0.30624 0 2 tcp 1040 ------- 1 0.0 2.0 40 148
- 0.30624 1 2 tcp 1040 ------- 2 1.0 2.1 40 149
r 0.30792 0 2 tcp 1040 ------- 1 0.0 2.0 37 134
+ 0.30792 2 0 ack 40 ------- 1 2.0 0.0 37 230
- 0.30792 2 0 ack 40 ------- 1 2.0 0.0 37 230
r 0.30792 1 2 tcp 1040 ------- 2 1.0 2.1 37 136
+ 0.30792 2 1 ack 40 ------- 2 2.1 1.0 37 231
- 0.30792 2 1 ack 40 ------- 2 2.1 1.0 37 231
r 0.30976 2 0 ack 40 ------- 1 2.0 0.0 35 216
+ 0.30976 0 2 tcp 1040 ------- 1 0.0 2.0 55 232
r 0.30976 2 1 ack 40 ------- 2 2.1 1.0 35 217
+ 0.30976 1 2 tcp 1040 ------- 2 1.0 2.1 55 233
r 0.309882 2 3 ack 40 ------- 3 2.2 3.0 14 203
+ 0.309882 3 2 tcp 1040 ------- 3 3.0 2.2 29 234
+ 0.309882 3 2 tcp 1040 ------- 3 3.0 2.2 30 235
- 0.309882 3 2 tcp 1040 ------- 3 3.0 2.2 22 205
r 0.310306 3 2 tcp 1040 ------- 3 3.0 2.2 17 188
+ 0.310306 2 3 ack 40 ------- 3 2.2 3.0 17 236
- 0.310306 2 3 ack 40 ------- 3 2.2 3.0 17 236
- 0.3104 0 2 tcp 1040 ------- 1 0.0 2.0 41 152
- 0.3104 1 2 tcp 1040 ------- 2 1.0 2.1 41 153
r 0.31208 0 2 tcp 1040 ------- 1 0.0 2.0 38 135
+ 0.31208 2 0 ack 40 ------- 1 2.0 0.0 38 237
- 0.31208 2 0 ack 40 ------- 1 2.0 0.0 38 237
r 0.31208 1 2 tcp 1040 ------- 2 1.0 2.1 38 137
+ 0.31208 2 1 ack 40 ------- 2 2.1 1.0 38 238
- 0.31208 2 1 ack 40 ------- 2 2.1 1.0 38 238
r 0.31392 2 0 ack 40 ------- 1 2.0 0.0 36 223
+ 0.31392 0 2 tcp 1040 ------- 1 0.0 2.0 56 239
r 0.31392 2 1 ack 40 ------- 2 2.1 1.0 36 224
+ 0.31392 1 2 tcp 1040 ------- 2 1.0 2.1 56 240
- 0.31456 0 2 tcp 1040 ------- 1 0.0 2.0 42 157
- 0.31456 1 2 tcp 1040 ------- 2 1.0 2.1 42 158
- 0.314776 3 2 tcp 1040 ------- 3 3.0 2.2 23 210
r 0.3152 3 2 tcp 1040 ------- 3 3.0 2.2 18 189
+ 0.3152 2 3 ack 40 ------- 3 2.2 3.0 18 241
- 0.3152 2 3 ack 40 ------- 3 2.2 3.0 18 241