V -t * -v 1.0a5 -a 0
A -t * -n 1 -p 0 -o 0x7fffffff -c 30 -a 1
A -t * -h 1 -m 1073741823 -s 0
c -t * -i 1 -n Blue
c -t * -i 2 -n Red
c -t * -i 3 -n Yellow
n -t * -a 0 -s 0 -S UP -v circle -c black -i black
n -t * -a 1 -s 1 -S UP -v circle -c black -i black
n -t * -a 2 -s 2 -S UP -v circle -c black -i black
n -t * -a 3 -s 3 -S UP -v circle -c black -i black
l -t * -s 0 -d 2 -S UP -r 2000000 -D 0.01 -c black -o right-down
l -t * -s 1 -d 2 -S UP -r 2000000 -D 0.01 -c black -o right-up
l -t * -s 3 -d 2 -S UP -r 1700000 -D 0.02 -c black -o right
+ -t 0.1 -s 0 -d 2 -p tcp -e 40 -c 1 -i 0 -a 1 -x {0.0 2.0 0 ------- null}
- -t 0.1 -s 0 -d 2 -p tcp -e 40 -c 1 -i 0 -a 1 -x {0.0 2.0 0 ------- null}
h -t 0.1 -s 0 -d 2 -p tcp -e 40 -c 1 -i 0 -a 1 -x {0.0 2.0 -1 ------- null}
+ -t 0.1 -s 1 -d 2 -p tcp -e 40 -c 2 -i 1 -a 2 -x {1.0 2.1 0 ------- null}
- -t 0.1 -s 1 -d 2 -p tcp -e 40 -c 2 -i 1 -a 2 -x {1.0 2.1 0 ------- null}
h -t 0.1 -s 1 -d 2 -p tcp -e 40 -c 2 -i 1 -a 2 -x {1.0 2.1 -1 ------- null}
+ -t 0.1 -s 3 -d 2 -p tcp -e 40 -c 3 -i 2 -a 3 -x {3.0 2.2 0 ------- null}
- -t 0.1 -s 3 -d 2 -p tcp -e 40 -c 3 -i 2 -a 3 -x {3.0 2.2 0 ------- null}
h -t 0.1 -s 3 -d 2 -p tcp -e 40 -c 3 -i 2 -a 3 -x {3.0 2.2 -1 ------- null}
r -t 0.11016 -s 0 -d 2 -p tcp -e 40 -c 1 -i 0 -a 1 -x {0.0 2.0 0 ------- null}
+ -t 0.11016 -s 2 -d 0 -p ack -e 40 -c 1 -i 3 -a 1 -x {2.0 0.0 0 ------- null}
- -t 0.11016 -s 2 -d 0 -p ack -e 40 -c 1 -i 3 -a 1 -x {2.0 0.0 0 ------- null}
h -t 0.11016 -s 2 -d 0 -p ack -e 40 -c 1 -i 3 -a 1 -x {2.0 0.0 -1 ------- null}
r -t 0.11016 -s 1 -d 2 -p tcp -e 40 -c 2 -i 1 -a 2 -x {1.0 2.1 0 ------- null}
+ -t 0.11016 -s 2 -d 1 -p ack -e 40 -c 2 -i 4 -a 2 -x {2.1 1.0 0 ------- null}
- -t 0.11016 -s 2 -d 1 -p ack -e 40 -c 2 -i 4 -a 2 -x {2.1 1.0 0 ------- null}
h -t 0.11016 -s 2 -d 1 -p ack -e 40 -c 2 -i 4 -a 2 -x {2.1 1.0 -1 ------- null}
r -t 0.120188235294118 -s 3 -d 2 -p tcp -e 40 -c 3 -i 2 -a 3 -x {3.0 2.2 0 ------- null}
+ -t 0.120188235294118 -s 2 -d 3 -p ack -e 40 -c 3 -i 5 -a 3 -x {2.2 3.0 0 ------- null}
- -t 0.120188235294118 -s 2 -d 3 -p ack -e 40 -c 3 -i 5 -a 3 -x {2.2 3.0 0 ------- null}
h -t 0.120188235294118 -s 2 -d 3 -p ack -e 40 -c 3 -i 5 -a 3 -x {2.2 3.0 -1 ------- null}
r -t 0.12032 -s 2 -d 0 -p ack -e 40 -c 1 -i 3 -a 1 -x {2.0 0.0 0 ------- null}
+ -t 0.12032 -s 0 -d 2 -p tcp -e 1040 -c 1 -i 6 -a 1 -x {0.0 2.0 1 ------- null}
- -t 0.12032 -s 0 -d 2 -p tcp -e 1040 -c 1 -i 6 -a 1 -x {0.0 2.0 1 ------- null}
h -t 0.12032 -s 0 -d 2 -p tcp -e 1040 -c 1 -i 6 -a 1 -x {0.0 2.0 -1 ------- null}
+ -t 0.12032 -s 0 -d 2 -p tcp -e 1040 -c 1 -i 7 -a 1 -x {0.0 2.0 2 ------- null}
r -t 0.12032 -s 2 -d 1 -p ack -e 40 -c 2 -i 4 -a 2 -x {2.1 1.0 0 ------- null}
+ -t 0.12032 -s 1 -d 2 -p tcp -e 1040 -c 2 -i 8 -a 2 -x {1.0 2.1 1 ------- null}
- -t 0.12032 -s 1 -d 2 -p tcp -e 1040 -c 2 -i 8 -a 2 -x {1.0 2.1 1 ------- null}
h -t 0.12032 -s 1 -d 2 -p tcp -e 1040 -c 2 -i 8 -a 2 -x {1.0 2.1 -1 ------- null}
+ -t 0.12032 -s 1 -d 2 -p tcp -e 1040 -c 2 -i 9 -a 2 -x {1.0 2.1 2 ------- null}
- -t 0.12448 -s 0 -d 2 -p tcp -e 1040 -c 1 -i 7 -a 1 -x {0.0 2.0 2 ------- null}
h -t 0.12448 -s 0 -d 2 -p tcp -e 1040 -c 1 -i 7 -a 1 -x {0.0 2.0 -1 ------- null}
- -t 0.12448 -s 1 -d 2 -p tcp -e 1040 -c 2 -i 9 -a 2 -x {1.0 2.1 2 ------- null}
h -t 0.12448 -s 1 -d 2 -p tcp -e 1040 -c 2 -i 9 -a 2 -x {1.0 2.1 -1 ------- null}
r -t 0.13448 -s 0 -d 2 -p tcp -e 1040 -c 1 -i 6 -a 1 -x {0.0 2.0 1 ------- null}
+ -t 0.13448 -s 2 -d 0 -p ack -e 40 -c 1 -i 10 -a 1 -x {2.0 0.0 1 ------- null}
- -t 0.13448 -s 2 -d 0 -p ack -e 40 -c 1 -i 10 -a 1 -x {2.0 0.0 1 ------- null}
h -t 0.13448 -s 2 -d 0 -p ack -e 40 -c 1 -i 10 -a 1 -x {2.0 0.0 -1 ------- null}
r -t 0.13448 -s 1 -d 2 -p tcp -e 1040 -c 2 -i 8 -a 2 -x {1.0 2.1 1 ------- null}
+ -t 0.13448 -s 2 -d 1 -p ack -e 40 -c 2 -i 11 -a 2 -x {2.1 1.0 1 ------- null}
- -t 0.13448 -s 2 -d 1 -p ack -e 40 -c 2 -i 11 -a 2 -x {2.1 1.0 1 ------- null}
h -t 0.13448 -s 2 -d 1 -p ack -e 40 -c 2 -i 11 -a 2 -x {2.1 1.0 -1 ------- null}
r -t 0.13864 -s 0 -d 2 -p tcp -e 1040 -c 1 -i 7 -a 1 -x {0.0 2.0 2 ------- null}
+ -t 0.13864 -s 2 -d 0 -p ack -e 40 -c 1 -i 12 -a 1 -x {2.0 0.0 2 ------- null}
- -t 0.13864 -s 2 -d 0 -p ack -e 40 -c 1 -i 12 -a 1 -x {2.0 0.0 2 ------- null}
h -t 0.13864 -s 2 -d 0 -p ack -e 40 -c 1 -i 12 -a 1 -x {2.0 0.0 -1 ------- null}
r -t 0.13864 -s 1 -d 2 -p tcp -e 1040 -c 2 -i 9 -a 2 -x {1.0 2.1 2 ------- null}
+ -t 0.13864 -s 2 -d 1 -p ack -e 40 -c 2 -i 13 -a 2 -x {2.1 1.0 2 ------- null}
- -t 0.13864 -s 2 -d 1 -p ack -e 40 -c 2 -i 13 -a 2 -x {2.1 1.0 2 ------- null}
h -t 0.13864 -s 2 -d 1 -p ack -e 40 -c 2 -i 13 -a 2 -x {2.1 1.0 -1 ------- null}
r -t 0.140376470588235 -s 2 -d 3 -p ack -e 40 -c 3 -i 5 -a 3 -x {2.2 3.0 0 ------- null}
+ -t 0.140376470588235 -s 3 -d 2 -p tcp -e 1040 -c 3 -i 14 -a 3 -x {3.0 2.2 1 ------- null}
- -t 0.140376470588235 -s 3 -d 2 -p tcp -e 1040 -c 3 -i 14 -a 3 -x {3.0 2.2 1 ------- null}
h -t 0.140376470588235 -s 3 -d 2 -p tcp -e 1040 -c 3 -i 14 -a 3 -x {3.0 2.2 -1 ------- null}
+ -t 0.140376470588235 -s 3 -d 2 -p tcp -e 1040 -c 3 -i 15 -a 3 -x {3.0 2.2 2 ------- null}
r -t 0.14464 -s 2 -d 0 -p ack -e 40 -c 1 -i 10 -a 1 -x {2.0 0.0 1 ------- null}
+ -t 0.14464 -s 0 -d 2 -p tcp -e 1040 -c 1 -i 16 -a 1 -x {0.0 2.0 3 ------- null}
- -t 0.14464 -s 0 -d 2 -p tcp -e 1040 -c 1 -i 16 -a 1 -x {0.0 2.0 3 ------- null}
h -t 0.14464 -s 0 -d 2 -p tcp -e 1040 -c 1 -i 16 -a 1 -x {0.0 2.0 -1 ------- null}
+ -t 0.14464 -s 0 -d 2 -p tcp -e 1040 -c 1 -i 17 -a 1 -x {0.0 2.0 4 ------- null}
r -t 0.14464 -s 2 -d 1 -p ack -e 40 -c 2 -i 11 -a 2 -x {2.1 1.0 1 ------- null}
+ -t 0.14464 -s 1 -d 2 -p tcp -e 1040 -c 2 -i 18 -a 2 -x {1.0 2.1 3 ------- null}
- -t 0.14464 -s 1 -d 2 -p tcp -e 1040 -c 2 -i 18 -a 2 -x {1.0 2.1 3 ------- null}
h -t 0.14464 -s 1 -d 2 -p tcp -e 1040 -c 2 -i 18 -a 2 -x {1.0 2.1 -1 ------- null}
+ -t 0.14464 -s 1 -d 2 -p tcp -e 1040 -c 2 -i 19 -a 2 -x {1.0 2.1 4 ------- null}
- -t 0.145270588235294 -s 3 -d 2 -p tcp -e 1040 -c 3 -i 15 -a 3 -x {3.0 2.2 2 ------- null}
h -t 0.145270588235294 -s 3 -d 2 -p tcp -e 1040 -c 3 -i 15 -a 3 -x {3.0 2.2 -1 ------- null}
r -t 0.1488 -s 2 -d 0 -p ack -e 40 -c 1 -i 12 -a 1 -x {2.0 0.0 2 ------- null}
+ -t 0.1488 -s 0 -d 2 -p tcp -e 1040 -c 1 -i 20 -a 1 -x {0.0 2.0 5 ------- null}
+ -t 0.1488 -s 0 -d 2 -p tcp -e 1040 -c 1 -i 21 -a 1 -x {0.0 2.0 6 ------- null}
r -t 0.1488 -s 2 -d 1 -p ack -e 40 -c 2 -i 13 -a 2 -x {2.1 1.0 2 ------- null}
+ -t 0.1488 -s 1 -d 2 -p tcp -e 1040 -c 2 -i 22 -a 2 -x {1.0 2.1 5 ------- null}
+ -t 0.1488 -s 1 -d 2 -p tcp -e 1040 -c 2 -i 23 -a 2 -x {1.0 2.1 6 ------- null}
- -t 0.1488 -s 0 -d 2 -p tcp -e 1040 -c 1 -i 17 -a 1 -x {0.0 2.0 4 ------- null}
h -t 0.1488 -s 0 -d 2 -p tcp -e 1040 -c 1 -i 17 -a 1 -x {0.0 2.0 -1 ------- null}
- -t 0.1488 -s 1 -d 2 -p tcp -e 1040 -c 2 -i 19 -a 2 -x {1.0 2.1 4 ------- null}
h -t 0.1488 -s 1 -d 2 -p tcp -e 1040 -c 2 -i 19 -a 2 -x {1.0 2.1 -1 ------- null}
- -t 0.15296 -s 0 -d 2 -p tcp -e 1040 -c 1 -i 20 -a 1 -x {0.0 2.0 5 ------- null}
h -t 0.15296 -s 0 -d 2 -p tcp -e 1040 -c 1 -i 20 -a 1 -x {0.0 2.0 -1 ------- null}
- -t 0.15296 -s 1 -d 2 -p tcp -e 1040 -c 2 -i 22 -a 2 -x {1.0 2.1 5 ------- null}
h -t 0.15296 -s 1 -d 2 -p tcp -e 1040 -c 2 -i 22 -a 2 -x {1.0 2.1 -1 ------- null}
- -t 0.15712 -s 0 -d 2 -p tcp -e 1040 -c 1 -i 21 -a 1 -x {0.0 2.0 6 ------- null}
h -t 0.15712 -s 0 -d 2 -p tcp -e 1040 -c 1 -i 21 -a 1 -x {0.0 2.0 -1 ------- null}
- -t 0.15712 -s 1 -d 2 -p tcp -e 1040 -c 2 -i 23 -a 2 -x {1.0 2.1 6 ------- null}
h -t 0.15712 -s 1 -d 2 -p tcp -e 1040 -c 2 -i 23 -a 2 -x {1.0 2.1 -1 ------- null}
r -t 0.1588 -s 0 -d 2 -p tcp -e 1040 -c 1 -i 16 -a 1 -x {0.0 2.0 3 ------- null}
+ -t 0.1588 -s 2 -d 0 -p ack -e 40 -c 1 -i 24 -a 1 -x {2.0 0.0 3 ------- null}
- -t 0.1588 -s 2 -d 0 -p ack -e 40 -c 1 -i 24 -a 1 -x {2.0 0.0 3 ------- null}
h -t 0.1588 -s 2 -d 0 -p ack -e 40 -c 1 -i 24 -a 1 -x {2.0 0.0 -1 ------- null}
r -t 0.1588 -s 1 -d 2 -p tcp -e 1040 -c 2 -i 18 -a 2 -x {1.0 2.1 3 ------- null}
+ -t 0.1588 -s 2 -d 1 -p ack -e 40 -c 2 -i 25 -a 2 -x {2.1 1.0 3 ------- null}
- -t 0.1588 -s 2 -d 1 -p ack -e 40 -c 2 -i 25 -a 2 -x {2.1 1.0 3 ------- null}
h -t 0.1588 -s 2 -d 1 -p ack -e 40 -c 2 -i 25 -a 2 -x {2.1 1.0 -1 ------- null}
r -t 0.16296 -s 0 -d 2 -p tcp -e 1040 -c 1 -i 17 -a 1 -x {0.0 2.0 4 ------- null}
+ -t 0.16296 -s 2 -d 0 -p ack -e 40 -c 1 -i 26 -a 1 -x {2.0 0.0 4 ------- null}
- -t 0.16296 -s 2 -d 0 -p ack -e 40 -c 1 -i 26 -a 1 -x {2.0 0.0 4 ------- null}
h -t 0.16296 -s 2 -d 0 -p ack -e 40 -c 1 -i 26 -a 1 -x {2.0 0.0 -1 ------- null}
r -t 0.16296 -s 1 -d 2 -p tcp -e 1040 -c 2 -i 19 -a 2 -x {1.0 2.1 4 ------- null}
+ -t 0.16296 -s 2 -d 1 -p ack -e 40 -c 2 -i 27 -a 2 -x {2.1 1.0 4 ------- null}
- -t 0.16296 -s 2 -d 1 -p ack -e 40 -c 2 -i 27 -a 2 -x {2.1 1.0 4 ------- null}
h -t 0.16296 -s 2 -d 1 -p ack -e 40 -c 2 -i 27 -a 2 -x {2.1 1.0 -1 ------- null}
r -t 0.165270588235294 -s 3 -d 2 -p tcp -e 1040 -c 3 -i 14 -a 3 -x {3.0 2.2 1 ------- null}
+ -t 0.165270588235294 -s 2 -d 3 -p ack -e 40 -c 3 -i 28 -a 3 -x {2.2 3.0 1 ------- null}
- -t 0.165270588235294 -s 2 -d 3 -p ack -e 40 -c 3 -i 28 -a 3 -x {2.2 3.0 1 ------- null}
h -t 0.165270588235294 -s 2 -d 3 -p ack -e 40 -c 3 -i 28 -a 3 -x {2.2 3.0 -1 ------- null}
r -t 0.16712 -s 0 -d 2 -p tcp -e 1040 -c 1 -i 20 -a 1 -x {0.0 2.0 5 ------- null}
+ -t 0.16712 -s 2 -d 0 -p ack -e 40 -c 1 -i 29 -a 1 -x {2.0 0.0 5 ------- null}
- -t 0.16712 -s 2 -d 0 -p ack -e 40 -c 1 -i 29 -a 1 -x {2.0 0.0 5 ------- null}
h -t 0.16712 -s 2 -d 0 -p ack -e 40 -c 1 -i 29 -a 1 -x {2.0 0.0 -1 ------- null}
r -t 0.16712 -s 1 -d 2 -p tcp -e 1040 -c 2 -i 22 -a 2 -x {1.0 2.1 5 ------- null}
+ -t 0.16712 -s 2 -d 1 -p ack -e 40 -c 2 -i 30 -a 2 -x {2.1 1.0 5 ------- null}
- -t 0.16712 -s 2 -d 1 -p ack -e 40 -c 2 -i 30 -a 2 -x {2.1 1.0 5 ------- null}
h -t 0.16712 -s 2 -d 1 -p ack -e 40 -c 2 -i 30 -a 2 -x {2.1 1.0 -1 ------- null}
r -t 0.16896 -s 2 -d 0 -p ack -e 40 -c 1 -i 24 -a 1 -x {2.0 0.0 3 ------- null}
+ -t 0.16896 -s 0 -d 2 -p tcp -e 1040 -c 1 -i 31 -a 1 -x {0.0 2.0 7 ------- null}
- -t 0.16896 -s 0 -d 2 -p tcp -e 1040 -c 1 -i 31 -a 1 -x {0.0 2.0 7 ------- null}
h -t 0.16896 -s 0 -d 2 -p tcp -e 1040 -c 1 -i 31 -a 1 -x {0.0 2.0 -1 ------- null}
+ -t 0.16896 -s 0 -d 2 -p tcp -e 1040 -c 1 -i 32 -a 1 -x {0.0 2.0 8 ------- null}
r -t 0.16896 -s 2 -d 1 -p ack -e 40 -c 2 -i 25 -a 2 -x {2.1 1.0 3 ------- null}
+ -t 0.16896 -s 1 -d 2 -p tcp -e 1040 -c 2 -i 33 -a 2 -x {1.0 2.1 7 ------- null}
- -t 0.16896 -s 1 -d 2 -p tcp -e 1040 -c 2 -i 33 -a 2 -x {1.0 2.1 7 ------- null}
h -t 0.16896 -s 1 -d 2 -p tcp -e 1040 -c 2 -i 33 -a 2 -x {1.0 2.1 -1 ------- null}
+ -t 0.16896 -s 1 -d 2 -p tcp -e 1040 -c 2 -i 34 -a 2 -x {1.0 2.1 8 ------- null}
r -t 0.170164705882353 -s 3 -d 2 -p tcp -e 1040 -c 3 -i 15 -a 3 -x {3.0 2.2 2 ------- null}
+ -t 0.170164705882353 -s 2 -d 3 -p ack -e 40 -c 3 -i 35 -a 3 -x {2.2 3.0 2 ------- null}
- -t 0.170164705882353 -s 2 -d 3 -p ack -e 40 -c 3 -i 35 -a 3 -x {2.2 3.0 2 ------- null}
h -t 0.170164705882353 -s 2 -d 3 -p ack -e 40 -c 3 -i 35 -a 3 -x {2.2 3.0 -1 ------- null}
r -t 0.17128 -s 0 -d 2 -p tcp -e 1040 -c 1 -i 21 -a 1 -x {0.0 2.0 6 ------- null}
+ -t 0.17128 -s 2 -d 0 -p ack -e 40 -c 1 -i 36 -a 1 -x {2.0 0.0 6 ------- null}
- -t 0.17128 -s 2 -d 0 -p ack -e 40 -c 1 -i 36 -a 1 -x {2.0 0.0 6 ------- null}
h -t 0.17128 -s 2 -d 0 -p ack -e 40 -c 1 -i 36 -a 1 -x {2.0 0.0 -1 ------- null}
r -t 0.17128 -s 1 -d 2 -p tcp -e 1040 -c 2 -i 23 -a 2 -x {1.0 2.1 6 ------- null}
+ -t 0.17128 -s 2 -d 1 -p ack -e 40 -c 2 -i 37 -a 2 -x {2.1 1.0 6 ------- null}
- -t 0.17128 -s 2 -d 1 -p ack -e 40 -c 2 -i 37 -a 2 -x {2.1 1.0 6 ------- null}
h -t 0.17128 -s 2 -d 1 -p ack -e 40 -c 2 -i 37 -a 2 -x {2.1 1.0 -1 ------- null}
r -t 0.17312 -s 2 -d 0 -p ack -e 40 -c 1 -i 26 -a 1 -x {2.0 0.0 4 ------- null}
+ -t 0.17312 -s 0 -d 2 -p tcp -e 1040 -c 1 -i 38 -a 1 -x {0.0 2.0 9 ------- null}
+ -t 0.17312 -s 0 -d 2 -p tcp -e 1040 -c 1 -i 39 -a 1 -x {0.0 2.0 10 ------- null}
r -t 0.17312 -s 2 -d 1 -p ack -e 40 -c 2 -i 27 -a 2 -x {2.1 1.0 4 ------- null}
+ -t 0.17312 -s 1 -d 2 -p tcp -e 1040 -c 2 -i 40 -a 2 -x {1.0 2.1 9 ------- null}
+ -t 0.17312 -s 1 -d 2 -p tcp -e 1040 -c 2 -i 41 -a 2 -x {1.0 2.1 10 ------- null}
- -t 0.17312 -s 0 -d 2 -p tcp -e 1040 -c 1 -i 32 -a 1 -x {0.0 2.0 8 ------- null}
h -t 0.17312 -s 0 -d 2 -p tcp -e 1040 -c 1 -i 32 -a 1 -x {0.0 2.0 -1 ------- null}
- -t 0.17312 -s 1 -d 2 -p tcp -e 1040 -c 2 -i 34 -a 2 -x {1.0 2.1 8 ------- null}
h -t 0.17312 -s 1 -d 2 -p tcp -e 1040 -c 2 -i 34 -a 2 -x {1.0 2.1 -1 ------- null}
r -t 0.17728 -s 2 -d 0 -p ack -e 40 -c 1 -i 29 -a 1 -x {2.0 0.0 5 ------- null}
+ -t 0.17728 -s 0 -d 2 -p tcp -e 1040 -c 1 -i 42 -a 1 -x {0.0 2.0 11 ------- null}
+ -t 0.17728 -s 0 -d 2 -p tcp -e 1040 -c 1 -i 43 -a 1 -x {0.0 2.0 12 ------- null}
r -t 0.17728 -s 2 -d 1 -p ack -e 40 -c 2 -i 30 -a 2 -x {2.1 1.0 5 ------- null}
+ -t 0.17728 -s 1 -d 2 -p tcp -e 1040 -c 2 -i 44 -a 2 -x {1.0 2.1 11 ------- null}
+ -t 0.17728 -s 1 -d 2 -p tcp -e 1040 -c 2 -i 45 -a 2 -x {1.0 2.1 12 ------- null}
- -t 0.17728 -s 0 -d 2 -p tcp -e 1040 -c 1 -i 38 -a 1 -x {0.0 2.0 9 ------- null}
h -t 0.17728 -s 0 -d 2 -p tcp -e 1040 -c 1 -i 38 -a 1 -x {0.0 2.0 -1 ------- null}
- -t 0.17728 -s 1 -d 2 -p tcp -e 1040 -c 2 -i 40 -a 2 -x {1.0 2.1 9 ------- null}
h -t 0.17728 -s 1 -d 2 -p tcp -e 1040 -c 2 -i 40 -a 2 -x {1.0 2.1 -1 ------- null}
r -t 0.18144 -s 2 -d 0 -p ack -e 40 -c 1 -i 36 -a 1 -x {2.0 0.0 6 ------- null}
+ -t 0.18144 -s 0 -d 2 -p tcp -e 1040 -c 1 -i 46 -a 1 -x {0.0 2.0 13 ------- null}
+ -t 0.18144 -s 0 -d 2 -p tcp -e 1040 -c 1 -i 47 -a 1 -x {0.0 2.0 14 ------- null}
r -t 0.18144 -s 2 -d 1 -p ack -e 40 -c 2 -i 37 -a 2 -x {2.1 1.0 6 ------- null}
+ -t 0.18144 -s 1 -d 2 -p tcp -e 1040 -c 2 -i 48 -a 2 -x {1.0 2.1 13 ------- null}
+ -t 0.18144 -s 1 -d 2 -p tcp -e 1040 -c 2 -i 49 -a 2 -x {1.0 2.1 14 ------- null}
- -t 0.18144 -s 0 -d 2 -p tcp -e 1040 -c 1 -i 39 -a 1 -x {0.0 2.0 10 ------- null}
h -t 0.18144 -s 0 -d 2 -p tcp -e 1040 -c 1 -i 39 -a 1 -x {0.0 2.0 -1 ------- null}
- -t 0.18144 -s 1 -d 2 -p tcp -e 1040 -c 2 -i 41 -a 2 -x {1.0 2.1 10 ------- null}
h -t 0.18144 -s 1 -d 2 -p tcp -e 1040 -c 2 -i 41 -a 2 -x {1.0 2.1 -1 ------- null}
r -t 0.18312 -s 0 -d 2 -p tcp -e 1040 -c 1 -i 31 -a 1 -x {0.0 2.0 7 ------- null}
+ -t 0.18312 -s 2 -d 0 -p ack -e 40 -c 1 -i 50 -a 1 -x {2.0 0.0 7 ------- null}
- -t 0.18312 -s 2 -d 0 -p ack -e 40 -c 1 -i 50 -a 1 -x {2.0 0.0 7 ------- null}
h -t 0.18312 -s 2 -d 0 -p ack -e 40 -c 1 -i 50 -a 1 -x {2.0 0.0 -1 ------- null}
r -t 0.18312 -s 1 -d 2 -p tcp -e 1040 -c 2 -i 33 -a 2 -x {1.0 2.1 7 ------- null}
+ -t 0.18312 -s 2 -d 1 -p ack -e 40 -c 2 -i 51 -a 2 -x {2.1 1.0 7 ------- null}
- -t 0.18312 -s 2 -d 1 -p ack -e 40 -c 2 -i 51 -a 2 -x {2.1 1.0 7 ------- null}
h -t 0.18312 -s 2 -d 1 -p ack -e 40 -c 2 -i 51 -a 2 -x {2.1 1.0 -1 ------- null}
r -t 0.185458823529412 -s 2 -d 3 -p ack -e 40 -c 3 -i 28 -a 3 -x {2.2 3.0 1 ------- null}
+ -t 0.185458823529412 -s 3 -d 2 -p tcp -e 1040 -c 3 -i 52 -a 3 -x {3.0 2.2 3 ------- null}
- -t 0.185458823529412 -s 3 -d 2 -p tcp -e 1040 -c 3 -i 52 -a 3 -x {3.0 2.2 3 ------- null}
h -t 0.185458823529412 -s 3 -d 2 -p tcp -e 1040 -c 3 -i 52 -a 3 -x {3.0 2.2 -1 ------- null}
+ -t 0.185458823529412 -s 3 -d 2 -p tcp -e 1040 -c 3 -i 53 -a 3 -x {3.0 2.2 4 ------- null}
- -t 0.1856 -s 0 -d 2 -p tcp -e 1040 -c 1 -i 42 -a 1 -x {0.0 2.0 11 ------- null}
h -t 0.1856 -s 0 -d 2 -p tcp -e 1040 -c 1 -i 42 -a 1 -x {0.0 2.0 -1 ------- null}
- -t 0.1856 -s 1 -d 2 -p tcp -e 1040 -c 2 -i 44 -a 2 -x {1.0 2.1 11 ------- null}
h -t 0.1856 -s 1 -d 2 -p tcp -e 1040 -c 2 -i 44 -a 2 -x {1.0 2.1 -1 ------- null}
r -t 0.18728 -s 0 -d 2 -p tcp -e 1040 -c 1 -i 32 -a 1 -x {0.0 2.0 8 ------- null}
+ -t 0.18728 -s 2 -d 0 -p ack -e 40 -c 1 -i 54 -a 1 -x {2.0 0.0 8 ------- null}
- -t 0.18728 -s 2 -d 0 -p ack -e 40 -c 1 -i 54 -a 1 -x {2.0 0.0 8 ------- null}
h -t 0.18728 -s 2 -d 0 -p ack -e 40 -c 1 -i 54 -a 1 -x {2.0 0.0 -1 ------- null}
r -t 0.18728 -s 1 -d 2 -p tcp -e 1040 -c 2 -i 34 -a 2 -x {1.0 2.1 8 ------- null}
+ -t 0.18728 -s 2 -d 1 -p ack -e 40 -c 2 -i 55 -a 2 -x {2.1 1.0 8 ------- null}
- -t 0.18728 -s 2 -d 1 -p ack -e 40 -c 2 -i 55 -a 2 -x {2.1 1.0 8 ------- null}
h -t 0.18728 -s 2 -d 1 -p ack -e 40 -c 2 -i 55 -a 2 -x {2.1 1.0 -1 ------- null}
- -t 0.18976 -s 0 -d 2 -p tcp -e 1040 -c 1 -i 43 -a 1 -x {0.0 2.0 12 ------- null}
h -t 0.18976 -s 0 -d 2 -p tcp -e 1040 -c 1 -i 43 -a 1 -x {0.0 2.0 -1 ------- null}
- -t 0.18976 -s 1 -d 2 -p tcp -e 1040 -c 2 -i 45 -a 2 -x {1.0 2.1 12 ------- null}
h -t 0.18976 -s 1 -d 2 -p tcp -e 1040 -c 2 -i 45 -a 2 -x {1.0 2.1 -1 ------- null}
r -t 0.190352941176471 -s 2 -d 3 -p ack -e 40 -c 3 -i 35 -a 3 -x {2.2 3.0 2 ------- null}
+ -t 0.190352941176471 -s 3 -d 2 -p tcp -e 1040 -c 3 -i 56 -a 3 -x {3.0 2.2 5 ------- null}
+ -t 0.190352941176471 -s 3 -d 2 -p tcp -e 1040 -c 3 -i 57 -a 3 -x {3.0 2.2 6 ------- null}
- -t 0.190352941176471 -s 3 -d 2 -p tcp -e 1040 -c 3 -i 53 -a 3 -x {3.0 2.2 4 ------- null}
h -t 0.190352941176471 -s 3 -d 2 -p tcp -e 1040 -c 3 -i 53 -a 3 -x {3.0 2.2 -1 ------- null}
r -t 0.19144 -s 0 -d 2 -p tcp -e 1040 -c 1 -i 38 -a 1 -x {0.0 2.0 9 ------- null}
+ -t 0.19144 -s 2 -d 0 -p ack -e 40 -c 1 -i 58 -a 1 -x {2.0 0.0 9 ------- null}
- -t 0.19144 -s 2 -d 0 -p ack -e 40 -c 1 -i 58 -a 1 -x {2.0 0.0 9 ------- null}
h -t 0.19144 -s 2 -d 0 -p ack -e 40 -c 1 -i 58 -a 1 -x {2.0 0.0 -1 ------- null}
r -t 0.19144 -s 1 -d 2 -p tcp -e 1040 -c 2 -i 40 -a 2 -x {1.0 2.1 9 ------- null}
+ -t 0.19144 -s 2 -d 1 -p ack -e 40 -c 2 -i 59 -a 2 -x {2.1 1.0 9 ------- null}
- -t 0.19144 -s 2 -d 1 -p ack -e 40 -c 2 -i 59 -a 2 -x {2.1 1.0 9 ------- null}
h -t 0.19144 -s 2 -d 1 -p ack -e 40 -c 2 -i 59 -a 2 -x {2.1 1.0 -1 ------- null}
r -t 0.19328 -s 2 -d 0 -p ack -e 40 -c 1 -i 50 -a 1 -x {2.0 0.0 7 ------- null}
+ -t 0.19328 -s 0 -d 2 -p tcp -e 1040 -c 1 -i 60 -a 1 -x {0.0 2.0 15 ------- null}
+ -t 0.19328 -s 0 -d 2 -p tcp -e 1040 -c 1 -i 61 -a 1 -x {0.0 2.0 16 ------- null}
r -t 0.19328 -s 2 -d 1 -p ack -e 40 -c 2 -i 51 -a 2 -x {2.1 1.0 7 ------- null}
+ -t 0.19328 -s 1 -d 2 -p tcp -e 1040 -c 2 -i 62 -a 2 -x {1.0 2.1 15 ------- null}
+ -t 0.19328 -s 1 -d 2 -p tcp -e 1040 -c 2 -i 63 -a 2 -x {1.0 2.1 16 ------- null}
- -t 0.19392 -s 0 -d 2 -p tcp -e 1040 -c 1 -i 46 -a 1 -x {0.0 2.0 13 ------- null}
h -t 0.19392 -s 0 -d 2 -p tcp -e 1040 -c 1 -i 46 -a 1 -x {0.0 2.0 -1 ------- null}
- -t 0.19392 -s 1 -d 2 -p tcp -e 1040 -c 2 -i 48 -a 2 -x {1.0 2.1 13 ------- null}
h -t 0.19392 -s 1 -d 2 -p tcp -e 1040 -c 2 -i 48 -a 2 -x {1.0 2.1 -1 ------- null}
- -t 0.195247058823529 -s 3 -d 2 -p tcp -e 1040 -c 3 -i 56 -a 3 -x {3.0 2.2 5 ------- null}
h -t 0.195247058823529 -s 3 -d 2 -p tcp -e 1040 -c 3 -i 56 -a 3 -x {3.0 2.2 -1 ------- null}
r -t 0.1956 -s 0 -d 2 -p tcp -e 1040 -c 1 -i 39 -a 1 -x {0.0 2.0 10 ------- null}
+ -t 0.1956 -s 2 -d 0 -p ack -e 40 -c 1 -i 64 -a 1 -x {2.0 0.0 10 ------- null}
- -t 0.1956 -s 2 -d 0 -p ack -e 40 -c 1 -i 64 -a 1 -x {2.0 0.0 10 ------- null}
h -t 0.1956 -s 2 -d 0 -p ack -e 40 -c 1 -i 64 -a 1 -x {2.0 0.0 -1 ------- null}
r -t 0.1956 -s 1 -d 2 -p tcp -e 1040 -c 2 -i 41 -a 2 -x {1.0 2.1 10 ------- null}
+ -t 0.1956 -s 2 -d 1 -p ack -e 40 -c 2 -i 65 -a 2 -x {2.1 1.0 10 ------- null}
- -t 0.1956 -s 2 -d 1 -p ack -e 40 -c 2 -i 65 -a 2 -x {2.1 1.0 10 ------- null}
h -t 0.1956 -s 2 -d 1 -p ack -e 40 -c 2 -i 65 -a 2 -x {2.1 1.0 -1 ------- null}
r -t 0.19744 -s 2 -d 0 -p ack -e 40 -c 1 -i 54 -a 1 -x {2.0 0.0 8 ------- null}
+ -t 0.19744 -s 0 -d 2 -p tcp -e 1040 -c 1 -i 66 -a 1 -x {0.0 2.0 17 ------- null}
+ -t 0.19744 -s 0 -d 2 -p tcp -e 1040 -c 1 -i 67 -a 1 -x {0.0 2.0 18 ------- null}
r -t 0.19744 -s 2 -d 1 -p ack -e 40 -c 2 -i 55 -a 2 -x {2.1 1.0 8 ------- null}
+ -t 0.19744 -s 1 -d 2 -p tcp -e 1040 -c 2 -i 68 -a 2 -x {1.0 2.1 17 ------- null}
+ -t 0.19744 -s 1 -d 2 -p tcp -e 1040 -c 2 -i 69 -a 2 -x {1.0 2.1 18 ------- null}
- -t 0.19808 -s 0 -d 2 -p tcp -e 1040 -c 1 -i 47 -a 1 -x {0.0 2.0 14 ------- null}
h -t 0.19808 -s 0 -d 2 -p tcp -e 1040 -c 1 -i 47 -a 1 -x {0.0 2.0 -1 ------- null}
- -t 0.19808 -s 1 -d 2 -p tcp -e 1040 -c 2 -i 49 -a 2 -x {1.0 2.1 14 ------- null}
h -t 0.19808 -s 1 -d 2 -p tcp -e 1040 -c 2 -i 49 -a 2 -x {1.0 2.1 -1 ------- null}
r -t 0.19976 -s 0 -d 2 -p tcp -e 1040 -c 1 -i 42 -a 1 -x {0.0 2.0 11 ------- null}
+ -t 0.19976 -s 2 -d 0 -p ack -e 40 -c 1 -i 70 -a 1 -x {2.0 0.0 11 ------- null}
- -t 0.19976 -s 2 -d 0 -p ack -e 40 -c 1 -i 70 -a 1 -x {2.0 0.0 11 ------- null}
h -t 0.19976 -s 2 -d 0 -p ack -e 40 -c 1 -i 70 -a 1 -x {2.0 0.0 -1 ------- null}
r -t 0.19976 -s 1 -d 2 -p tcp -e 1040 -c 2 -i 44 -a 2 -x {1.0 2.1 11 ------- null}
+ -t 0.19976 -s 2 -d 1 -p ack -e 40 -c 2 -i 71 -a 2 -x {2.1 1.0 11 ------- null}
- -t 0.19976 -s 2 -d 1 -p ack -e 40 -c 2 -i 71 -a 2 -x {2.1 1.0 11 ------- null}
h -t 0.19976 -s 2 -d 1 -p ack -e 40 -c 2 -i 71 -a 2 -x {2.1 1.0 -1 ------- null}
- -t 0.200141176470588 -s 3 -d 2 -p tcp -e 1040 -c 3 -i 57 -a 3 -x {3.0 2.2 6 ------- null}
h -t 0.200141176470588 -s 3 -d 2 -p tcp -e 1040 -c 3 -i 57 -a 3 -x {3.0 2.2 -1 ------- null}
r -t 0.2016 -s 2 -d 0 -p ack -e 40 -c 1 -i 58 -a 1 -x {2.0 0.0 9 ------- null}
+ -t 0.2016 -s 0 -d 2 -p tcp -e 1040 -c 1 -i 72 -a 1 -x {0.0 2.0 19 ------- null}
+ -t 0.2016 -s 0 -d 2 -p tcp -e 1040 -c 1 -i 73 -a 1 -x {0.0 2.0 20 ------- null}
r -t 0.2016 -s 2 -d 1 -p ack -e 40 -c 2 -i 59 -a 2 -x {2.1 1.0 9 ------- null}
+ -t 0.2016 -s 1 -d 2 -p tcp -e 1040 -c 2 -i 74 -a 2 -x {1.0 2.1 19 ------- null}
+ -t 0.2016 -s 1 -d 2 -p tcp -e 1040 -c 2 -i 75 -a 2 -x {1.0 2.1 20 ------- null}
- -t 0.20224 -s 0 -d 2 -p tcp -e 1040 -c 1 -i 60 -a 1 -x {0.0 2.0 15 ------- null}
h -t 0.20224 -s 0 -d 2 -p tcp -e 1040 -c 1 -i 60 -a 1 -x {0.0 2.0 -1 ------- null}
- -t 0.20224 -s 1 -d 2 -p tcp -e 1040 -c 2 -i 62 -a 2 -x {1.0 2.1 15 ------- null}
h -t 0.20224 -s 1 -d 2 -p tcp -e 1040 -c 2 -i 62 -a 2 -x {1.0 2.1 -1 ------- null}
r -t 0.20392 -s 0 -d 2 -p tcp -e 1040 -c 1 -i 43 -a 1 -x {0.0 2.0 12 ------- null}
+ -t 0.20392 -s 2 -d 0 -p ack -e 40 -c 1 -i 76 -a 1 -x {2.0 0.0 12 ------- null}
- -t 0.20392 -s 2 -d 0 -p ack -e 40 -c 1 -i 76 -a 1 -x {2.0 0.0 12 ------- null}
h -t 0.20392 -s 2 -d 0 -p ack -e 40 -c 1 -i 76 -a 1 -x {2.0 0.0 -1 ------- null}
r -t 0.20392 -s 1 -d 2 -p tcp -e 1040 -c 2 -i 45 -a 2 -x {1.0 2.1 12 ------- null}
+ -t 0.20392 -s 2 -d 1 -p ack -e 40 -c 2 -i 77 -a 2 -x {2.1 1.0 12 ------- null}
- -t 0.20392 -s 2 -d 1 -p ack -e 40 -c 2 -i 77 -a 2 -x {2.1 1.0 12 ------- null}
h -t 0.20392 -s 2 -d 1 -p ack -e 40 -c 2 -i 77 -a 2 -x {2.1 1.0 -1 ------- null}
r -t 0.20576 -s 2 -d 0 -p ack -e 40 -c 1 -i 64 -a 1 -x {2.0 0.0 10 ------- null}
+ -t 0.20576 -s 0 -d 2 -p tcp -e 1040 -c 1 -i 78 -a 1 -x {0.0 2.0 21 ------- null}
+ -t 0.20576 -s 0 -d 2 -p tcp -e 1040 -c 1 -i 79 -a 1 -x {0.0 2.0 22 ------- null}
r -t 0.20576 -s 2 -d 1 -p ack -e 40 -c 2 -i 65 -a 2 -x {2.1 1.0 10 ------- null}
+ -t 0.20576 -s 1 -d 2 -p tcp -e 1040 -c 2 -i 80 -a 2 -x {1.0 2.1 21 ------- null}
+ -t 0.20576 -s 1 -d 2 -p tcp -e 1040 -c 2 -i 81 -a 2 -x {1.0 2.1 22 ------- null}
- -t 0.2064 -s 0 -d 2 -p tcp -e 1040 -c 1 -i 61 -a 1 -x {0.0 2.0 16 ------- null}
h -t 0.2064 -s 0 -d 2 -p tcp -e 1040 -c 1 -i 61 -a 1 -x {0.0 2.0 -1 ------- null}
- -t 0.2064 -s 1 -d 2 -p tcp -e 1040 -c 2 -i 63 -a 2 -x {1.0 2.1 16 ------- null}
h -t 0.2064 -s 1 -d 2 -p tcp -e 1040 -c 2 -i 63 -a 2 -x {1.0 2.1 -1 ------- null}
r -t 0.20808 -s 0 -d 2 -p tcp -e 1040 -c 1 -i 46 -a 1 -x {0.0 2.0 13 ------- null}
+ -t 0.20808 -s 2 -d 0 -p ack -e 40 -c 1 -i 82 -a 1 -x {2.0 0.0 13 ------- null}
- -t 0.20808 -s 2 -d 0 -p ack -e 40 -c 1 -i 82 -a 1 -x {2.0 0.0 13 ------- null}
h -t 0.20808 -s 2 -d 0 -p ack -e 40 -c 1 -i 82 -a 1 -x {2.0 0.0 -1 ------- null}
r -t 0.20808 -s 1 -d 2 -p tcp -e 1040 -c 2 -i 48 -a 2 -x {1.0 2.1 13 ------- null}
+ -t 0.20808 -s 2 -d 1 -p ack -e 40 -c 2 -i 83 -a 2 -x {2.1 1.0 13 ------- null}
- -t 0.20808 -s 2 -d 1 -p ack -e 40 -c 2 -i 83 -a 2 -x {2.1 1.0 13 ------- null}
h -t 0.20808 -s 2 -d 1 -p ack -e 40 -c 2 -i 83 -a 2 -x {2.1 1.0 -1 ------- null}
r -t 0.20992 -s 2 -d 0 -p ack -e 40 -c 1 -i 70 -a 1 -x {2.0 0.0 11 ------- null}
+ -t 0.20992 -s 0 -d 2 -p tcp -e 1040 -c 1 -i 84 -a 1 -x {0.0 2.0 23 ------- null}
+ -t 0.20992 -s 0 -d 2 -p tcp -e 1040 -c 1 -i 85 -a 1 -x {0.0 2.0 24 ------- null}
r -t 0.20992 -s 2 -d 1 -p ack -e 40 -c 2 -i 71 -a 2 -x {2.1 1.0 11 ------- null}
+ -t 0.20992 -s 1 -d 2 -p tcp -e 1040 -c 2 -i 86 -a 2 -x {1.0 2.1 23 ------- null}
+ -t 0.20992 -s 1 -d 2 -p tcp -e 1040 -c 2 -i 87 -a 2 -x {1.0 2.1 24 ------- null}
r -t 0.210352941176471 -s 3 -d 2 -p tcp -e 1040 -c 3 -i 52 -a 3 -x {3.0 2.2 3 ------- null}
+ -t 0.210352941176471 -s 2 -d 3 -p ack -e 40 -c 3 -i 88 -a 3 -x {2.2 3.0 3 ------- null}
- -t 0.210352941176471 -s 2 -d 3 -p ack -e 40 -c 3 -i 88 -a 3 -x {2.2 3.0 3 ------- null}
h -t 0.210352941176471 -s 2 -d 3 -p ack -e 40 -c 3 -i 88 -a 3 -x {2.2 3.0 -1 ------- null}
- -t 0.21056 -s 0 -d 2 -p tcp -e 1040 -c 1 -i 66 -a 1 -x {0.0 2.0 17 ------- null}
h -t 0.21056 -s 0 -d 2 -p tcp -e 1040 -c 1 -i 66 -a 1 -x {0.0 2.0 -1 ------- null}
- -t 0.21056 -s 1 -d 2 -p tcp -e 1040 -c 2 -i 68 -a 2 -x {1.0 2.1 17 ------- null}
h -t 0.21056 -s 1 -d 2 -p tcp -e 1040 -c 2 -i 68 -a 2 -x {1.0 2.1 -1 ------- null}
r -t 0.21224 -s 0 -d 2 -p tcp -e 1040 -c 1 -i 47 -a 1 -x {0.0 2.0 14 ------- null}
+ -t 0.21224 -s 2 -d 0 -p ack -e 40 -c 1 -i 89 -a 1 -x {2.0 0.0 14 ------- null}
- -t 0.21224 -s 2 -d 0 -p ack -e 40 -c 1 -i 89 -a 1 -x {2.0 0.0 14 ------- null}
h -t 0.21224 -s 2 -d 0 -p ack -e 40 -c 1 -i 89 -a 1 -x {2.0 0.0 -1 ------- null}
r -t 0.21224 -s 1 -d 2 -p tcp -e 1040 -c 2 -i 49 -a 2 -x {1.0 2.1 14 ------- null}
+ -t 0.21224 -s 2 -d 1 -p ack -e 40 -c 2 -i 90 -a 2 -x {2.1 1.0 14 ------- null}
- -t 0.21224 -s 2 -d 1 -p ack -e 40 -c 2 -i 90 -a 2 -x {2.1 1.0 14 ------- null}
h -t 0.21224 -s 2 -d 1 -p ack -e 40 -c 2 -i 90 -a 2 -x {2.1 1.0 -1 ------- null}
r -t 0.21408 -s 2 -d 0 -p ack -e 40 -c 1 -i 76 -a 1 -x {2.0 0.0 12 ------- null}
+ -t 0.21408 -s 0 -d 2 -p tcp -e 1040 -c 1 -i 91 -a 1 -x {0.0 2.0 25 ------- null}
+ -t 0.21408 -s 0 -d 2 -p tcp -e 1040 -c 1 -i 92 -a 1 -x {0.0 2.0 26 ------- null}
r -t 0.21408 -s 2 -d 1 -p ack -e 40 -c 2 -i 77 -a 2 -x {2.1 1.0 12 ------- null}
+ -t 0.21408 -s 1 -d 2 -p tcp -e 1040 -c 2 -i 93 -a 2 -x {1.0 2.1 25 ------- null}
+ -t 0.21408 -s 1 -d 2 -p tcp -e 1040 -c 2 -i 94 -a 2 -x {1.0 2.1 26 ------- null}
- -t 0.21472 -s 0 -d 2 -p tcp -e 1040 -c 1 -i 67 -a 1 -x {0.0 2.0 18 ------- null}
h -t 0.21472 -s 0 -d 2 -p tcp -e 1040 -c 1 -i 67 -a 1 -x {0.0 2.0 -1 ------- null}
- -t 0.21472 -s 1 -d 2 -p tcp -e 1040 -c 2 -i 69 -a 2 -x {1.0 2.1 18 ------- null}
h -t 0.21472 -s 1 -d 2 -p tcp -e 1040 -c 2 -i 69 -a 2 -x {1.0 2.1 -1 ------- null}
r -t 0.215247058823529 -s 3 -d 2 -p tcp -e 1040 -c 3 -i 53 -a 3 -x {3.0 2.2 4 ------- null}
+ -t 0.215247058823529 -s 2 -d 3 -p ack -e 40 -c 3 -i 95 -a 3 -x {2.2 3.0 4 ------- null}
- -t 0.215247058823529 -s 2 -d 3 -p ack -e 40 -c 3 -i 95 -a 3 -x {2.2 3.0 4 ------- null}
h -t 0.215247058823529 -s 2 -d 3 -p ack -e 40 -c 3 -i 95 -a 3 -x {2.2 3.0 -1 ------- null}
r -t 0.2164 -s 0 -d 2 -p tcp -e 1040 -c 1 -i 60 -a 1 -x {0.0 2.0 15 ------- null}
+ -t 0.2164 -s 2 -d 0 -p ack -e 40 -c 1 -i 96 -a 1 -x {2.0 0.0 15 ------- null}
- -t 0.2164 -s 2 -d 0 -p ack -e 40 -c 1 -i 96 -a 1 -x {2.0 0.0 15 ------- null}
h -t 0.2164 -s 2 -d 0 -p ack -e 40 -c 1 -i 96 -a 1 -x {2.0 0.0 -1 ------- null}
r -t 0.2164 -s 1 -d 2 -p tcp -e 1040 -c 2 -i 62 -a 2 -x {1.0 2.1 15 ------- null}
+ -t 0.2164 -s 2 -d 1 -p ack -e 40 -c 2 -i 97 -a 2 -x {2.1 1.0 15 ------- null}
- -t 0.2164 -s 2 -d 1 -p ack -e 40 -c 2 -i 97 -a 2 -x {2.1 1.0 15 ------- null}
h -t 0.2164 -s 2 -d 1 -p ack -e 40 -c 2 -i 97 -a 2 -x {2.1 1.0 -1 ------- null}
r -t 0.21824 -s 2 -d 0 -p ack -e 40 -c 1 -i 82 -a 1 -x {2.0 0.0 13 ------- null}
+ -t 0.21824 -s 0 -d 2 -p tcp -e 1040 -c 1 -i 98 -a 1 -x {0.0 2.0 27 ------- null}
+ -t 0.21824 -s 0 -d 2 -p tcp -e 1040 -c 1 -i 99 -a 1 -x {0.0 2.0 28 ------- null}
r -t 0.21824 -s 2 -d 1 -p ack -e 40 -c 2 -i 83 -a 2 -x {2.1 1.0 13 ------- null}
+ -t 0.21824 -s 1 -d 2 -p tcp -e 1040 -c 2 -i 100 -a 2 -x {1.0 2.1 27 ------- null}
+ -t 0.21824 -s 1 -d 2 -p tcp -e 1040 -c 2 -i 101 -a 2 -x {1.0 2.1 28 ------- null}
- -t 0.21888 -s 0 -d 2 -p tcp -e 1040 -c 1 -i 72 -a 1 -x {0.0 2.0 19 ------- null}
h -t 0.21888 -s 0 -d 2 -p tcp -e 1040 -c 1 -i 72 -a 1 -x {0.0 2.0 -1 ------- null}
- -t 0.21888 -s 1 -d 2 -p tcp -e 1040 -c 2 -i 74 -a 2 -x {1.0 2.1 19 ------- null}
h -t 0.21888 -s 1 -d 2 -p tcp -e 1040 -c 2 -i 74 -a 2 -x {1.0 2.1 -1 ------- null}
r -t 0.220141176470588 -s 3 -d 2 -p tcp -e 1040 -c 3 -i 56 -a 3 -x {3.0 2.2 5 ------- null}
+ -t 0.220141176470588 -s 2 -d 3 -p ack -e 40 -c 3 -i 102 -a 3 -x {2.2 3.0 5 ------- null}
- -t 0.220141176470588 -s 2 -d 3 -p ack -e 40 -c 3 -i 102 -a 3 -x {2.2 3.0 5 ------- null}
h -t 0.220141176470588 -s 2 -d 3 -p ack -e 40 -c 3 -i 102 -a 3 -x {2.2 3.0 -1 ------- null}
r -t 0.22056 -s 0 -d 2 -p tcp -e 1040 -c 1 -i 61 -a 1 -x {0.0 2.0 16 ------- null}
+ -t 0.22056 -s 2 -d 0 -p ack -e 40 -c 1 -i 103 -a 1 -x {2.0 0.0 16 ------- null}
- -t 0.22056 -s 2 -d 0 -p ack -e 40 -c 1 -i 103 -a 1 -x {2.0 0.0 16 ------- null}
h -t 0.22056 -s 2 -d 0 -p ack -e 40 -c 1 -i 103 -a 1 -x {2.0 0.0 -1 ------- null}
r -t 0.22056 -s 1 -d 2 -p tcp -e 1040 -c 2 -i 63 -a 2 -x {1.0 2.1 16 ------- null}
+ -t 0.22056 -s 2 -d 1 -p ack -e 40 -c 2 -i 104 -a 2 -x {2.1 1.0 16 ------- null}
- -t 0.22056 -s 2 -d 1 -p ack -e 40 -c 2 -i 104 -a 2 -x {2.1 1.0 16 ------- null}
h -t 0.22056 -s 2 -d 1 -p ack -e 40 -c 2 -i 104 -a 2 -x {2.1 1.0 -1 ------- null}
r -t 0.2224 -s 2 -d 0 -p ack -e 40 -c 1 -i 89 -a 1 -x {2.0 0.0 14 ------- null}
+ -t 0.2224 -s 0 -d 2 -p tcp -e 1040 -c 1 -i 105 -a 1 -x {0.0 2.0 29 ------- null}