+ 0.5 0 1 tcp 40 ------- 3 0.0 5.0 0 0
- 0.5 0 1 tcp 40 ------- 3 0.0 5.0 0 0
r 0.51032 0 1 tcp 40 ------- 3 0.0 5.0 0 0
h 0.51032 1 6 tcp 40 ------- 3 0.0 5.0 0 0
+ 0.52032 1 6 tcp 40 ------- 3 0.0 5.0 0 0
- 0.52032 1 6 tcp 40 ------- 3 0.0 5.0 0 0
d 0.520324 4 6 tcp 40 ------- 3 0.0 5.0 0 0
d 0.520324 3 6 tcp 40 ------- 3 0.0 5.0 0 0
d 0.520324 2 6 tcp 40 ------- 3 0.0 5.0 0 0
r 0.530324 6 5 tcp 40 ------- 3 0.0 5.0 0 0
h 0.530324 5 6 ack 40 ------- 3 5.0 0.0 0 1
+ 0.540324 5 6 ack 40 ------- 3 5.0 0.0 0 1
- 0.540324 5 6 ack 40 ------- 3 5.0 0.0 0 1
d 0.540328 4 6 ack 40 ------- 3 5.0 0.0 0 1
d 0.540328 3 6 ack 40 ------- 3 5.0 0.0 0 1
d 0.540328 2 6 ack 40 ------- 3 5.0 0.0 0 1
r 0.550328 6 1 ack 40 ------- 3 5.0 0.0 0 1
+ 0.550328 1 0 ack 40 ------- 3 5.0 0.0 0 1
- 0.550328 1 0 ack 40 ------- 3 5.0 0.0 0 1
r 0.560648 1 0 ack 40 ------- 3 5.0 0.0 0 1
+ 0.560648 0 1 tcp 1040 ------- 3 0.0 5.0 1 2
- 0.560648 0 1 tcp 1040 ------- 3 0.0 5.0 1 2
+ 0.560648 0 1 tcp 1040 ------- 3 0.0 5.0 2 3
- 0.568968 0 1 tcp 1040 ------- 3 0.0 5.0 2 3
r 0.578968 0 1 tcp 1040 ------- 3 0.0 5.0 1 2
h 0.578968 1 6 tcp 1040 ------- 3 0.0 5.0 1 2
r 0.587288 0 1 tcp 1040 ------- 3 0.0 5.0 2 3
h 0.587288 1 6 tcp 1040 ------- 3 0.0 5.0 2 3
+ 0.588968 1 6 tcp 1040 ------- 3 0.0 5.0 1 2
- 0.588968 1 6 tcp 1040 ------- 3 0.0 5.0 1 2
d 0.588972 4 6 tcp 1040 ------- 3 0.0 5.0 1 2
d 0.588972 3 6 tcp 1040 ------- 3 0.0 5.0 1 2
d 0.588972 2 6 tcp 1040 ------- 3 0.0 5.0 1 2
+ 0.597288 1 6 tcp 1040 ------- 3 0.0 5.0 2 3
- 0.597288 1 6 tcp 1040 ------- 3 0.0 5.0 2 3
d 0.597292 4 6 tcp 1040 ------- 3 0.0 5.0 2 3
d 0.597292 3 6 tcp 1040 ------- 3 0.0 5.0 2 3
d 0.597292 2 6 tcp 1040 ------- 3 0.0 5.0 2 3
r 0.598972 6 5 tcp 1040 ------- 3 0.0 5.0 1 2
h 0.598972 5 6 ack 40 ------- 3 5.0 0.0 1 4
r 0.607292 6 5 tcp 1040 ------- 3 0.0 5.0 2 3
h 0.607292 5 6 ack 40 ------- 3 5.0 0.0 2 5
+ 0.608972 5 6 ack 40 ------- 3 5.0 0.0 1 4
- 0.608972 5 6 ack 40 ------- 3 5.0 0.0 1 4
d 0.608976 4 6 ack 40 ------- 3 5.0 0.0 1 4
d 0.608976 3 6 ack 40 ------- 3 5.0 0.0 1 4
d 0.608976 2 6 ack 40 ------- 3 5.0 0.0 1 4
+ 0.617292 5 6 ack 40 ------- 3 5.0 0.0 2 5
- 0.617292 5 6 ack 40 ------- 3 5.0 0.0 2 5
d 0.617296 4 6 ack 40 ------- 3 5.0 0.0 2 5
d 0.617296 3 6 ack 40 ------- 3 5.0 0.0 2 5
d 0.617296 2 6 ack 40 ------- 3 5.0 0.0 2 5
r 0.618976 6 1 ack 40 ------- 3 5.0 0.0 1 4
+ 0.618976 1 0 ack 40 ------- 3 5.0 0.0 1 4
- 0.618976 1 0 ack 40 ------- 3 5.0 0.0 1 4
r 0.627296 6 1 ack 40 ------- 3 5.0 0.0 2 5
+ 0.627296 1 0 ack 40 ------- 3 5.0 0.0 2 5
- 0.627296 1 0 ack 40 ------- 3 5.0 0.0 2 5
r 0.629296 1 0 ack 40 ------- 3 5.0 0.0 1 4
+ 0.629296 0 1 tcp 1040 ------- 3 0.0 5.0 3 6
- 0.629296 0 1 tcp 1040 ------- 3 0.0 5.0 3 6
+ 0.629296 0 1 tcp 1040 ------- 3 0.0 5.0 4 7
r 0.637616 1 0 ack 40 ------- 3 5.0 0.0 2 5
+ 0.637616 0 1 tcp 1040 ------- 3 0.0 5.0 5 8
+ 0.637616 0 1 tcp 1040 ------- 3 0.0 5.0 6 9
- 0.637616 0 1 tcp 1040 ------- 3 0.0 5.0 4 7
- 0.645936 0 1 tcp 1040 ------- 3 0.0 5.0 5 8
r 0.647616 0 1 tcp 1040 ------- 3 0.0 5.0 3 6
h 0.647616 1 6 tcp 1040 ------- 3 0.0 5.0 3 6
- 0.654256 0 1 tcp 1040 ------- 3 0.0 5.0 6 9
r 0.655936 0 1 tcp 1040 ------- 3 0.0 5.0 4 7
h 0.655936 1 6 tcp 1040 ------- 3 0.0 5.0 4 7
+ 0.657616 1 6 tcp 1040 ------- 3 0.0 5.0 3 6
- 0.657616 1 6 tcp 1040 ------- 3 0.0 5.0 3 6
d 0.65762 4 6 tcp 1040 ------- 3 0.0 5.0 3 6
d 0.65762 3 6 tcp 1040 ------- 3 0.0 5.0 3 6
d 0.65762 2 6 tcp 1040 ------- 3 0.0 5.0 3 6
r 0.664256 0 1 tcp 1040 ------- 3 0.0 5.0 5 8
h 0.664256 1 6 tcp 1040 ------- 3 0.0 5.0 5 8
+ 0.665936 1 6 tcp 1040 ------- 3 0.0 5.0 4 7
- 0.665936 1 6 tcp 1040 ------- 3 0.0 5.0 4 7
d 0.66594 4 6 tcp 1040 ------- 3 0.0 5.0 4 7
d 0.66594 3 6 tcp 1040 ------- 3 0.0 5.0 4 7
d 0.66594 2 6 tcp 1040 ------- 3 0.0 5.0 4 7
r 0.66762 6 5 tcp 1040 ------- 3 0.0 5.0 3 6
h 0.66762 5 6 ack 40 ------- 3 5.0 0.0 3 10
r 0.672576 0 1 tcp 1040 ------- 3 0.0 5.0 6 9
h 0.672576 1 6 tcp 1040 ------- 3 0.0 5.0 6 9
+ 0.674256 1 6 tcp 1040 ------- 3 0.0 5.0 5 8
- 0.674256 1 6 tcp 1040 ------- 3 0.0 5.0 5 8
d 0.67426 4 6 tcp 1040 ------- 3 0.0 5.0 5 8
d 0.67426 3 6 tcp 1040 ------- 3 0.0 5.0 5 8
d 0.67426 2 6 tcp 1040 ------- 3 0.0 5.0 5 8
r 0.67594 6 5 tcp 1040 ------- 3 0.0 5.0 4 7
h 0.67594 5 6 ack 40 ------- 3 5.0 0.0 4 11
+ 0.67762 5 6 ack 40 ------- 3 5.0 0.0 3 10
- 0.67762 5 6 ack 40 ------- 3 5.0 0.0 3 10
d 0.677624 4 6 ack 40 ------- 3 5.0 0.0 3 10
d 0.677624 3 6 ack 40 ------- 3 5.0 0.0 3 10
d 0.677624 2 6 ack 40 ------- 3 5.0 0.0 3 10
+ 0.682576 1 6 tcp 1040 ------- 3 0.0 5.0 6 9
- 0.682576 1 6 tcp 1040 ------- 3 0.0 5.0 6 9
d 0.68258 4 6 tcp 1040 ------- 3 0.0 5.0 6 9
d 0.68258 3 6 tcp 1040 ------- 3 0.0 5.0 6 9
d 0.68258 2 6 tcp 1040 ------- 3 0.0 5.0 6 9
r 0.68426 6 5 tcp 1040 ------- 3 0.0 5.0 5 8
h 0.68426 5 6 ack 40 ------- 3 5.0 0.0 5 12
+ 0.68594 5 6 ack 40 ------- 3 5.0 0.0 4 11
- 0.68594 5 6 ack 40 ------- 3 5.0 0.0 4 11
d 0.685944 4 6 ack 40 ------- 3 5.0 0.0 4 11
d 0.685944 3 6 ack 40 ------- 3 5.0 0.0 4 11
d 0.685944 2 6 ack 40 ------- 3 5.0 0.0 4 11
r 0.687624 6 1 ack 40 ------- 3 5.0 0.0 3 10
+ 0.687624 1 0 ack 40 ------- 3 5.0 0.0 3 10
- 0.687624 1 0 ack 40 ------- 3 5.0 0.0 3 10
r 0.69258 6 5 tcp 1040 ------- 3 0.0 5.0 6 9
h 0.69258 5 6 ack 40 ------- 3 5.0 0.0 6 13
+ 0.69426 5 6 ack 40 ------- 3 5.0 0.0 5 12
- 0.69426 5 6 ack 40 ------- 3 5.0 0.0 5 12
d 0.694264 4 6 ack 40 ------- 3 5.0 0.0 5 12
d 0.694264 3 6 ack 40 ------- 3 5.0 0.0 5 12
d 0.694264 2 6 ack 40 ------- 3 5.0 0.0 5 12
r 0.695944 6 1 ack 40 ------- 3 5.0 0.0 4 11
+ 0.695944 1 0 ack 40 ------- 3 5.0 0.0 4 11
- 0.695944 1 0 ack 40 ------- 3 5.0 0.0 4 11
r 0.697944 1 0 ack 40 ------- 3 5.0 0.0 3 10
+ 0.697944 0 1 tcp 1040 ------- 3 0.0 5.0 7 14
- 0.697944 0 1 tcp 1040 ------- 3 0.0 5.0 7 14
+ 0.697944 0 1 tcp 1040 ------- 3 0.0 5.0 8 15
+ 0.70258 5 6 ack 40 ------- 3 5.0 0.0 6 13
- 0.70258 5 6 ack 40 ------- 3 5.0 0.0 6 13
d 0.702584 4 6 ack 40 ------- 3 5.0 0.0 6 13
d 0.702584 3 6 ack 40 ------- 3 5.0 0.0 6 13
d 0.702584 2 6 ack 40 ------- 3 5.0 0.0 6 13
r 0.704264 6 1 ack 40 ------- 3 5.0 0.0 5 12
+ 0.704264 1 0 ack 40 ------- 3 5.0 0.0 5 12
- 0.704264 1 0 ack 40 ------- 3 5.0 0.0 5 12
r 0.706264 1 0 ack 40 ------- 3 5.0 0.0 4 11
+ 0.706264 0 1 tcp 1040 ------- 3 0.0 5.0 9 16
+ 0.706264 0 1 tcp 1040 ------- 3 0.0 5.0 10 17
- 0.706264 0 1 tcp 1040 ------- 3 0.0 5.0 8 15
r 0.712584 6 1 ack 40 ------- 3 5.0 0.0 6 13
+ 0.712584 1 0 ack 40 ------- 3 5.0 0.0 6 13
- 0.712584 1 0 ack 40 ------- 3 5.0 0.0 6 13
r 0.714584 1 0 ack 40 ------- 3 5.0 0.0 5 12
+ 0.714584 0 1 tcp 1040 ------- 3 0.0 5.0 11 18
+ 0.714584 0 1 tcp 1040 ------- 3 0.0 5.0 12 19
- 0.714584 0 1 tcp 1040 ------- 3 0.0 5.0 9 16
r 0.716264 0 1 tcp 1040 ------- 3 0.0 5.0 7 14
h 0.716264 1 6 tcp 1040 ------- 3 0.0 5.0 7 14
r 0.722904 1 0 ack 40 ------- 3 5.0 0.0 6 13
+ 0.722904 0 1 tcp 1040 ------- 3 0.0 5.0 13 20
+ 0.722904 0 1 tcp 1040 ------- 3 0.0 5.0 14 21
- 0.722904 0 1 tcp 1040 ------- 3 0.0 5.0 10 17
r 0.724584 0 1 tcp 1040 ------- 3 0.0 5.0 8 15
h 0.724584 1 6 tcp 1040 ------- 3 0.0 5.0 8 15
+ 0.726264 1 6 tcp 1040 ------- 3 0.0 5.0 7 14
- 0.726264 1 6 tcp 1040 ------- 3 0.0 5.0 7 14
d 0.726268 4 6 tcp 1040 ------- 3 0.0 5.0 7 14
d 0.726268 3 6 tcp 1040 ------- 3 0.0 5.0 7 14
d 0.726268 2 6 tcp 1040 ------- 3 0.0 5.0 7 14
- 0.731224 0 1 tcp 1040 ------- 3 0.0 5.0 11 18
r 0.732904 0 1 tcp 1040 ------- 3 0.0 5.0 9 16
h 0.732904 1 6 tcp 1040 ------- 3 0.0 5.0 9 16
+ 0.734584 1 6 tcp 1040 ------- 3 0.0 5.0 8 15
- 0.734584 1 6 tcp 1040 ------- 3 0.0 5.0 8 15
d 0.734588 4 6 tcp 1040 ------- 3 0.0 5.0 8 15
d 0.734588 3 6 tcp 1040 ------- 3 0.0 5.0 8 15
d 0.734588 2 6 tcp 1040 ------- 3 0.0 5.0 8 15
r 0.736268 6 5 tcp 1040 ------- 3 0.0 5.0 7 14
h 0.736268 5 6 ack 40 ------- 3 5.0 0.0 7 22
- 0.739544 0 1 tcp 1040 ------- 3 0.0 5.0 12 19
r 0.741224 0 1 tcp 1040 ------- 3 0.0 5.0 10 17
h 0.741224 1 6 tcp 1040 ------- 3 0.0 5.0 10 17
+ 0.742904 1 6 tcp 1040 ------- 3 0.0 5.0 9 16
- 0.742904 1 6 tcp 1040 ------- 3 0.0 5.0 9 16
d 0.742908 4 6 tcp 1040 ------- 3 0.0 5.0 9 16
d 0.742908 3 6 tcp 1040 ------- 3 0.0 5.0 9 16
d 0.742908 2 6 tcp 1040 ------- 3 0.0 5.0 9 16
r 0.744588 6 5 tcp 1040 ------- 3 0.0 5.0 8 15
h 0.744588 5 6 ack 40 ------- 3 5.0 0.0 8 23
+ 0.746268 5 6 ack 40 ------- 3 5.0 0.0 7 22
- 0.746268 5 6 ack 40 ------- 3 5.0 0.0 7 22
d 0.746272 4 6 ack 40 ------- 3 5.0 0.0 7 22
d 0.746272 3 6 ack 40 ------- 3 5.0 0.0 7 22
d 0.746272 2 6 ack 40 ------- 3 5.0 0.0 7 22
- 0.747864 0 1 tcp 1040 ------- 3 0.0 5.0 13 20
r 0.749544 0 1 tcp 1040 ------- 3 0.0 5.0 11 18
h 0.749544 1 6 tcp 1040 ------- 3 0.0 5.0 11 18
+ 0.751224 1 6 tcp 1040 ------- 3 0.0 5.0 10 17
- 0.751224 1 6 tcp 1040 ------- 3 0.0 5.0 10 17
d 0.751228 4 6 tcp 1040 ------- 3 0.0 5.0 10 17
d 0.751228 3 6 tcp 1040 ------- 3 0.0 5.0 10 17
d 0.751228 2 6 tcp 1040 ------- 3 0.0 5.0 10 17
r 0.752908 6 5 tcp 1040 ------- 3 0.0 5.0 9 16
h 0.752908 5 6 ack 40 ------- 3 5.0 0.0 9 24
+ 0.754588 5 6 ack 40 ------- 3 5.0 0.0 8 23
- 0.754588 5 6 ack 40 ------- 3 5.0 0.0 8 23
d 0.754592 4 6 ack 40 ------- 3 5.0 0.0 8 23
d 0.754592 3 6 ack 40 ------- 3 5.0 0.0 8 23
d 0.754592 2 6 ack 40 ------- 3 5.0 0.0 8 23
- 0.756184 0 1 tcp 1040 ------- 3 0.0 5.0 14 21
r 0.756272 6 1 ack 40 ------- 3 5.0 0.0 7 22
+ 0.756272 1 0 ack 40 ------- 3 5.0 0.0 7 22
- 0.756272 1 0 ack 40 ------- 3 5.0 0.0 7 22
r 0.757864 0 1 tcp 1040 ------- 3 0.0 5.0 12 19
h 0.757864 1 6 tcp 1040 ------- 3 0.0 5.0 12 19
+ 0.759544 1 6 tcp 1040 ------- 3 0.0 5.0 11 18
- 0.759544 1 6 tcp 1040 ------- 3 0.0 5.0 11 18
d 0.759548 4 6 tcp 1040 ------- 3 0.0 5.0 11 18
d 0.759548 3 6 tcp 1040 ------- 3 0.0 5.0 11 18
d 0.759548 2 6 tcp 1040 ------- 3 0.0 5.0 11 18
r 0.761228 6 5 tcp 1040 ------- 3 0.0 5.0 10 17
h 0.761228 5 6 ack 40 ------- 3 5.0 0.0 10 25
+ 0.762908 5 6 ack 40 ------- 3 5.0 0.0 9 24
- 0.762908 5 6 ack 40 ------- 3 5.0 0.0 9 24
d 0.762912 4 6 ack 40 ------- 3 5.0 0.0 9 24
d 0.762912 3 6 ack 40 ------- 3 5.0 0.0 9 24
d 0.762912 2 6 ack 40 ------- 3 5.0 0.0 9 24
r 0.764592 6 1 ack 40 ------- 3 5.0 0.0 8 23
+ 0.764592 1 0 ack 40 ------- 3 5.0 0.0 8 23
- 0.764592 1 0 ack 40 ------- 3 5.0 0.0 8 23
r 0.766184 0 1 tcp 1040 ------- 3 0.0 5.0 13 20
h 0.766184 1 6 tcp 1040 ------- 3 0.0 5.0 13 20
r 0.766592 1 0 ack 40 ------- 3 5.0 0.0 7 22
+ 0.766592 0 1 tcp 1040 ------- 3 0.0 5.0 15 26
- 0.766592 0 1 tcp 1040 ------- 3 0.0 5.0 15 26
+ 0.766592 0 1 tcp 1040 ------- 3 0.0 5.0 16 27
+ 0.767864 1 6 tcp 1040 ------- 3 0.0 5.0 12 19
- 0.767864 1 6 tcp 1040 ------- 3 0.0 5.0 12 19
d 0.767868 4 6 tcp 1040 ------- 3 0.0 5.0 12 19
d 0.767868 3 6 tcp 1040 ------- 3 0.0 5.0 12 19
d 0.767868 2 6 tcp 1040 ------- 3 0.0 5.0 12 19
r 0.769548 6 5 tcp 1040 ------- 3 0.0 5.0 11 18
h 0.769548 5 6 ack 40 ------- 3 5.0 0.0 11 28
+ 0.771228 5 6 ack 40 ------- 3 5.0 0.0 10 25
- 0.771228 5 6 ack 40 ------- 3 5.0 0.0 10 25
d 0.771232 4 6 ack 40 ------- 3 5.0 0.0 10 25
d 0.771232 3 6 ack 40 ------- 3 5.0 0.0 10 25
d 0.771232 2 6 ack 40 ------- 3 5.0 0.0 10 25
r 0.772912 6 1 ack 40 ------- 3 5.0 0.0 9 24
+ 0.772912 1 0 ack 40 ------- 3 5.0 0.0 9 24
- 0.772912 1 0 ack 40 ------- 3 5.0 0.0 9 24
r 0.774504 0 1 tcp 1040 ------- 3 0.0 5.0 14 21
h 0.774504 1 6 tcp 1040 ------- 3 0.0 5.0 14 21
r 0.774912 1 0 ack 40 ------- 3 5.0 0.0 8 23
+ 0.774912 0 1 tcp 1040 ------- 3 0.0 5.0 17 29
+ 0.774912 0 1 tcp 1040 ------- 3 0.0 5.0 18 30
- 0.774912 0 1 tcp 1040 ------- 3 0.0 5.0 16 27
+ 0.776184 1 6 tcp 1040 ------- 3 0.0 5.0 13 20
- 0.776184 1 6 tcp 1040 ------- 3 0.0 5.0 13 20
d 0.776188 4 6 tcp 1040 ------- 3 0.0 5.0 13 20
d 0.776188 3 6 tcp 1040 ------- 3 0.0 5.0 13 20
d 0.776188 2 6 tcp 1040 ------- 3 0.0 5.0 13 20
r 0.777868 6 5 tcp 1040 ------- 3 0.0 5.0 12 19
h 0.777868 5 6 ack 40 ------- 3 5.0 0.0 12 31
+ 0.779548 5 6 ack 40 ------- 3 5.0 0.0 11 28
- 0.779548 5 6 ack 40 ------- 3 5.0 0.0 11 28
d 0.779552 4 6 ack 40 ------- 3 5.0 0.0 11 28
d 0.779552 3 6 ack 40 ------- 3 5.0 0.0 11 28
d 0.779552 2 6 ack 40 ------- 3 5.0 0.0 11 28
r 0.781232 6 1 ack 40 ------- 3 5.0 0.0 10 25
+ 0.781232 1 0 ack 40 ------- 3 5.0 0.0 10 25
- 0.781232 1 0 ack 40 ------- 3 5.0 0.0 10 25
r 0.783232 1 0 ack 40 ------- 3 5.0 0.0 9 24
+ 0.783232 0 1 tcp 1040 ------- 3 0.0 5.0 19 32
+ 0.783232 0 1 tcp 1040 ------- 3 0.0 5.0 20 33
- 0.783232 0 1 tcp 1040 ------- 3 0.0 5.0 17 29
+ 0.784504 1 6 tcp 1040 ------- 3 0.0 5.0 14 21
- 0.784504 1 6 tcp 1040 ------- 3 0.0 5.0 14 21
d 0.784508 4 6 tcp 1040 ------- 3 0.0 5.0 14 21
d 0.784508 3 6 tcp 1040 ------- 3 0.0 5.0 14 21
d 0.784508 2 6 tcp 1040 ------- 3 0.0 5.0 14 21
r 0.784912 0 1 tcp 1040 ------- 3 0.0 5.0 15 26
h 0.784912 1 6 tcp 1040 ------- 3 0.0 5.0 15 26
r 0.786188 6 5 tcp 1040 ------- 3 0.0 5.0 13 20
h 0.786188 5 6 ack 40 ------- 3 5.0 0.0 13 34
+ 0.787868 5 6 ack 40 ------- 3 5.0 0.0 12 31
- 0.787868 5 6 ack 40 ------- 3 5.0 0.0 12 31
d 0.787872 4 6 ack 40 ------- 3 5.0 0.0 12 31
d 0.787872 3 6 ack 40 ------- 3 5.0 0.0 12 31
d 0.787872 2 6 ack 40 ------- 3 5.0 0.0 12 31
r 0.789552 6 1 ack 40 ------- 3 5.0 0.0 11 28
+ 0.789552 1 0 ack 40 ------- 3 5.0 0.0 11 28
- 0.789552 1 0 ack 40 ------- 3 5.0 0.0 11 28
r 0.791552 1 0 ack 40 ------- 3 5.0 0.0 10 25
+ 0.791552 0 1 tcp 1040 ------- 3 0.0 5.0 21 35
+ 0.791552 0 1 tcp 1040 ------- 3 0.0 5.0 22 36
- 0.791552 0 1 tcp 1040 ------- 3 0.0 5.0 18 30
r 0.793232 0 1 tcp 1040 ------- 3 0.0 5.0 16 27
h 0.793232 1 6 tcp 1040 ------- 3 0.0 5.0 16 27
r 0.794508 6 5 tcp 1040 ------- 3 0.0 5.0 14 21
h 0.794508 5 6 ack 40 ------- 3 5.0 0.0 14 37
+ 0.794912 1 6 tcp 1040 ------- 3 0.0 5.0 15 26
- 0.794912 1 6 tcp 1040 ------- 3 0.0 5.0 15 26
d 0.794916 4 6 tcp 1040 ------- 3 0.0 5.0 15 26
d 0.794916 3 6 tcp 1040 ------- 3 0.0 5.0 15 26
d 0.794916 2 6 tcp 1040 ------- 3 0.0 5.0 15 26
+ 0.796188 5 6 ack 40 ------- 3 5.0 0.0 13 34
- 0.796188 5 6 ack 40 ------- 3 5.0 0.0 13 34
d 0.796192 4 6 ack 40 ------- 3 5.0 0.0 13 34
d 0.796192 3 6 ack 40 ------- 3 5.0 0.0 13 34
d 0.796192 2 6 ack 40 ------- 3 5.0 0.0 13 34
r 0.797872 6 1 ack 40 ------- 3 5.0 0.0 12 31
+ 0.797872 1 0 ack 40 ------- 3 5.0 0.0 12 31
- 0.797872 1 0 ack 40 ------- 3 5.0 0.0 12 31
r 0.799872 1 0 ack 40 ------- 3 5.0 0.0 11 28
+ 0.799872 0 1 tcp 1040 ------- 3 0.0 5.0 23 38
+ 0.799872 0 1 tcp 1040 ------- 3 0.0 5.0 24 39
- 0.799872 0 1 tcp 1040 ------- 3 0.0 5.0 19 32
r 0.801552 0 1 tcp 1040 ------- 3 0.0 5.0 17 29
h 0.801552 1 6 tcp 1040 ------- 3 0.0 5.0 17 29
+ 0.803232 1 6 tcp 1040 ------- 3 0.0 5.0 16 27
- 0.803232 1 6 tcp 1040 ------- 3 0.0 5.0 16 27
d 0.803236 4 6 tcp 1040 ------- 3 0.0 5.0 16 27
d 0.803236 3 6 tcp 1040 ------- 3 0.0 5.0 16 27
d 0.803236 2 6 tcp 1040 ------- 3 0.0 5.0 16 27
+ 0.804508 5 6 ack 40 ------- 3 5.0 0.0 14 37
- 0.804508 5 6 ack 40 ------- 3 5.0 0.0 14 37
d 0.804512 4 6 ack 40 ------- 3 5.0 0.0 14 37
d 0.804512 3 6 ack 40 ------- 3 5.0 0.0 14 37
d 0.804512 2 6 ack 40 ------- 3 5.0 0.0 14 37
r 0.804916 6 5 tcp 1040 ------- 3 0.0 5.0 15 26
h 0.804916 5 6 ack 40 ------- 3 5.0 0.0 15 40
r 0.806192 6 1 ack 40 ------- 3 5.0 0.0 13 34
+ 0.806192 1 0 ack 40 ------- 3 5.0 0.0 13 34
- 0.806192 1 0 ack 40 ------- 3 5.0 0.0 13 34
r 0.808192 1 0 ack 40 ------- 3 5.0 0.0 12 31
+ 0.808192 0 1 tcp 1040 ------- 3 0.0 5.0 25 41
+ 0.808192 0 1 tcp 1040 ------- 3 0.0 5.0 26 42
- 0.808192 0 1 tcp 1040 ------- 3 0.0 5.0 20 33
r 0.809872 0 1 tcp 1040 ------- 3 0.0 5.0 18 30
h 0.809872 1 6 tcp 1040 ------- 3 0.0 5.0 18 30
+ 0.811552 1 6 tcp 1040 ------- 3 0.0 5.0 17 29
- 0.811552 1 6 tcp 1040 ------- 3 0.0 5.0 17 29
d 0.811556 4 6 tcp 1040 ------- 3 0.0 5.0 17 29
d 0.811556 3 6 tcp 1040 ------- 3 0.0 5.0 17 29
d 0.811556 2 6 tcp 1040 ------- 3 0.0 5.0 17 29
r 0.813236 6 5 tcp 1040 ------- 3 0.0 5.0 16 27
h 0.813236 5 6 ack 40 ------- 3 5.0 0.0 16 43
r 0.814512 6 1 ack 40 ------- 3 5.0 0.0 14 37
+ 0.814512 1 0 ack 40 ------- 3 5.0 0.0 14 37
- 0.814512 1 0 ack 40 ------- 3 5.0 0.0 14 37
+ 0.814916 5 6 ack 40 ------- 3 5.0 0.0 15 40
- 0.814916 5 6 ack 40 ------- 3 5.0 0.0 15 40
d 0.81492 4 6 ack 40 ------- 3 5.0 0.0 15 40
d 0.81492 3 6 ack 40 ------- 3 5.0 0.0 15 40
d 0.81492 2 6 ack 40 ------- 3 5.0 0.0 15 40
r 0.816512 1 0 ack 40 ------- 3 5.0 0.0 13 34
+ 0.816512 0 1 tcp 1040 ------- 3 0.0 5.0 27 44
+ 0.816512 0 1 tcp 1040 ------- 3 0.0 5.0 28 45
- 0.816512 0 1 tcp 1040 ------- 3 0.0 5.0 21 35
r 0.818192 0 1 tcp 1040 ------- 3 0.0 5.0 19 32
h 0.818192 1 6 tcp 1040 ------- 3 0.0 5.0 19 32
+ 0.819872 1 6 tcp 1040 ------- 3 0.0 5.0 18 30
- 0.819872 1 6 tcp 1040 ------- 3 0.0 5.0 18 30
d 0.819876 4 6 tcp 1040 ------- 3 0.0 5.0 18 30
d 0.819876 3 6 tcp 1040 ------- 3 0.0 5.0 18 30
d 0.819876 2 6 tcp 1040 ------- 3 0.0 5.0 18 30
r 0.821556 6 5 tcp 1040 ------- 3 0.0 5.0 17 29
h 0.821556 5 6 ack 40 ------- 3 5.0 0.0 17 46
+ 0.823236 5 6 ack 40 ------- 3 5.0 0.0 16 43
- 0.823236 5 6 ack 40 ------- 3 5.0 0.0 16 43
d 0.82324 4 6 ack 40 ------- 3 5.0 0.0 16 43
d 0.82324 3 6 ack 40 ------- 3 5.0 0.0 16 43
d 0.82324 2 6 ack 40 ------- 3 5.0 0.0 16 43
r 0.824832 1 0 ack 40 ------- 3 5.0 0.0 14 37
+ 0.824832 0 1 tcp 1040 ------- 3 0.0 5.0 29 47
+ 0.824832 0 1 tcp 1040 ------- 3 0.0 5.0 30 48
- 0.824832 0 1 tcp 1040 ------- 3 0.0 5.0 22 36
r 0.82492 6 1 ack 40 ------- 3 5.0 0.0 15 40
+ 0.82492 1 0 ack 40 ------- 3 5.0 0.0 15 40
- 0.82492 1 0 ack 40 ------- 3 5.0 0.0 15 40
r 0.826512 0 1 tcp 1040 ------- 3 0.0 5.0 20 33
h 0.826512 1 6 tcp 1040 ------- 3 0.0 5.0 20 33
+ 0.828192 1 6 tcp 1040 ------- 3 0.0 5.0 19 32
- 0.828192 1 6 tcp 1040 ------- 3 0.0 5.0 19 32
d 0.828196 4 6 tcp 1040 ------- 3 0.0 5.0 19 32
d 0.828196 3 6 tcp 1040 ------- 3 0.0 5.0 19 32
d 0.828196 2 6 tcp 1040 ------- 3 0.0 5.0 19 32
r 0.829876 6 5 tcp 1040 ------- 3 0.0 5.0 18 30
h 0.829876 5 6 ack 40 ------- 3 5.0 0.0 18 49
+ 0.831556 5 6 ack 40 ------- 3 5.0 0.0 17 46
- 0.831556 5 6 ack 40 ------- 3 5.0 0.0 17 46
d 0.83156 4 6 ack 40 ------- 3 5.0 0.0 17 46
d 0.83156 3 6 ack 40 ------- 3 5.0 0.0 17 46
d 0.83156 2 6 ack 40 ------- 3 5.0 0.0 17 46
- 0.833152 0 1 tcp 1040 ------- 3 0.0 5.0 23 38
r 0.83324 6 1 ack 40 ------- 3 5.0 0.0 16 43
+ 0.83324 1 0 ack 40 ------- 3 5.0 0.0 16 43
- 0.83324 1 0 ack 40 ------- 3 5.0 0.0 16 43
r 0.834832 0 1 tcp 1040 ------- 3 0.0 5.0 21 35
h 0.834832 1 6 tcp 1040 ------- 3 0.0 5.0 21 35
r 0.83524 1 0 ack 40 ------- 3 5.0 0.0 15 40
+ 0.83524 0 1 tcp 1040 ------- 3 0.0 5.0 31 50
+ 0.83524 0 1 tcp 1040 ------- 3 0.0 5.0 32 51
+ 0.836512 1 6 tcp 1040 ------- 3 0.0 5.0 20 33
- 0.836512 1 6 tcp 1040 ------- 3 0.0 5.0 20 33
d 0.836516 4 6 tcp 1040 ------- 3 0.0 5.0 20 33
d 0.836516 3 6 tcp 1040 ------- 3 0.0 5.0 20 33
d 0.836516 2 6 tcp 1040 ------- 3 0.0 5.0 20 33
r 0.838196 6 5 tcp 1040 ------- 3 0.0 5.0 19 32
h 0.838196 5 6 ack 40 ------- 3 5.0 0.0 19 52
+ 0.839876 5 6 ack 40 ------- 3 5.0 0.0 18 49
- 0.839876 5 6 ack 40 ------- 3 5.0 0.0 18 49
d 0.83988 4 6 ack 40 ------- 3 5.0 0.0 18 49
d 0.83988 3 6 ack 40 ------- 3 5.0 0.0 18 49
d 0.83988 2 6 ack 40 ------- 3 5.0 0.0 18 49
- 0.841472 0 1 tcp 1040 ------- 3 0.0 5.0 24 39
r 0.84156 6 1 ack 40 ------- 3 5.0 0.0 17 46
+ 0.84156 1 0 ack 40 ------- 3 5.0 0.0 17 46
- 0.84156 1 0 ack 40 ------- 3 5.0 0.0 17 46
r 0.843152 0 1 tcp 1040 ------- 3 0.0 5.0 22 36
h 0.843152 1 6 tcp 1040 ------- 3 0.0 5.0 22 36
r 0.84356 1 0 ack 40 ------- 3 5.0 0.0 16 43
+ 0.84356 0 1 tcp 1040 ------- 3 0.0 5.0 33 53
+ 0.84356 0 1 tcp 1040 ------- 3 0.0 5.0 34 54
d 0.84356 0 1 tcp 1040 ------- 3 0.0 5.0 34 54
+ 0.844832 1 6 tcp 1040 ------- 3 0.0 5.0 21 35
- 0.844832 1 6 tcp 1040 ------- 3 0.0 5.0 21 35
d 0.844836 4 6 tcp 1040 ------- 3 0.0 5.0 21 35
d 0.844836 3 6 tcp 1040 ------- 3 0.0 5.0 21 35
d 0.844836 2 6 tcp 1040 ------- 3 0.0 5.0 21 35
r 0.846516 6 5 tcp 1040 ------- 3 0.0 5.0 20 33
h 0.846516 5 6 ack 40 ------- 3 5.0 0.0 20 55
+ 0.848196 5 6 ack 40 ------- 3 5.0 0.0 19 52
- 0.848196 5 6 ack 40 ------- 3 5.0 0.0 19 52
d 0.8482 4 6 ack 40 ------- 3 5.0 0.0 19 52
d 0.8482 3 6 ack 40 ------- 3 5.0 0.0 19 52
d 0.8482 2 6 ack 40 ------- 3 5.0 0.0 19 52
- 0.849792 0 1 tcp 1040 ------- 3 0.0 5.0 25 41
r 0.84988 6 1 ack 40 ------- 3 5.0 0.0 18 49
+ 0.84988 1 0 ack 40 ------- 3 5.0 0.0 18 49
- 0.84988 1 0 ack 40 ------- 3 5.0 0.0 18 49
r 0.851472 0 1 tcp 1040 ------- 3 0.0 5.0 23 38
h 0.851472 1 6 tcp 1040 ------- 3 0.0 5.0 23 38
r 0.85188 1 0 ack 40 ------- 3 5.0 0.0 17 46
+ 0.85188 0 1 tcp 1040 ------- 3 0.0 5.0 35 56
+ 0.85188 0 1 tcp 1040 ------- 3 0.0 5.0 36 57
d 0.85188 0 1 tcp 1040 ------- 3 0.0 5.0 36 57
+ 0.853152 1 6 tcp 1040 ------- 3 0.0 5.0 22 36
- 0.853152 1 6 tcp 1040 ------- 3 0.0 5.0 22 36
d 0.853156 4 6 tcp 1040 ------- 3 0.0 5.0 22 36
d 0.853156 3 6 tcp 1040 ------- 3 0.0 5.0 22 36
d 0.853156 2 6 tcp 1040 ------- 3 0.0 5.0 22 36
r 0.854836 6 5 tcp 1040 ------- 3 0.0 5.0 21 35
h 0.854836 5 6 ack 40 ------- 3 5.0 0.0 21 58
+ 0.856516 5 6 ack 40 ------- 3 5.0 0.0 20 55
- 0.856516 5 6 ack 40 ------- 3 5.0 0.0 20 55
d 0.85652 4 6 ack 40 ------- 3 5.0 0.0 20 55
d 0.85652 3 6 ack 40 ------- 3 5.0 0.0 20 55
d 0.85652 2 6 ack 40 ------- 3 5.0 0.0 20 55
- 0.858112 0 1 tcp 1040 ------- 3 0.0 5.0 26 42
r 0.8582 6 1 ack 40 ------- 3 5.0 0.0 19 52
+ 0.8582 1 0 ack 40 ------- 3 5.0 0.0 19 52
- 0.8582 1 0 ack 40 ------- 3 5.0 0.0 19 52
r 0.859792 0 1 tcp 1040 ------- 3 0.0 5.0 24 39
h 0.859792 1 6 tcp 1040 ------- 3 0.0 5.0 24 39
r 0.8602 1 0 ack 40 ------- 3 5.0 0.0 18 49
+ 0.8602 0 1 tcp 1040 ------- 3 0.0 5.0 37 59
+ 0.861472 1 6 tcp 1040 ------- 3 0.0 5.0 23 38
- 0.861472 1 6 tcp 1040 ------- 3 0.0 5.0 23 38
d 0.861476 4 6 tcp 1040 ------- 3 0.0 5.0 23 38
d 0.861476 3 6 tcp 1040 ------- 3 0.0 5.0 23 38
d 0.861476 2 6 tcp 1040 ------- 3 0.0 5.0 23 38
r 0.863156 6 5 tcp 1040 ------- 3 0.0 5.0 22 36
h 0.863156 5 6 ack 40 ------- 3 5.0 0.0 22 60
+ 0.864836 5 6 ack 40 ------- 3 5.0 0.0 21 58
- 0.864836 5 6 ack 40 ------- 3 5.0 0.0 21 58
d 0.86484 4 6 ack 40 ------- 3 5.0 0.0 21 58
d 0.86484 3 6 ack 40 ------- 3 5.0 0.0 21 58
d 0.86484 2 6 ack 40 ------- 3 5.0 0.0 21 58
- 0.866432 0 1 tcp 1040 ------- 3 0.0 5.0 27 44
r 0.86652 6 1 ack 40 ------- 3 5.0 0.0 20 55
+ 0.86652 1 0 ack 40 ------- 3 5.0 0.0 20 55
- 0.86652 1 0 ack 40 ------- 3 5.0 0.0 20 55
r 0.868112 0 1 tcp 1040 ------- 3 0.0 5.0 25 41
h 0.868112 1 6 tcp 1040 ------- 3 0.0 5.0 25 41
r 0.86852 1 0 ack 40 ------- 3 5.0 0.0 19 52
+ 0.869792 1 6 tcp 1040 ------- 3 0.0 5.0 24 39
- 0.869792 1 6 tcp 1040 ------- 3 0.0 5.0 24 39
d 0.869796 4 6 tcp 1040 ------- 3 0.0 5.0 24 39
d 0.869796 3 6 tcp 1040 ------- 3 0.0 5.0 24 39
d 0.869796 2 6 tcp 1040 ------- 3 0.0 5.0 24 39
+ 0.87 0 1 tcp 1040 ------- 3 0.0 5.0 38 61
r 0.871476 6 5 tcp 1040 ------- 3 0.0 5.0 23 38
h 0.871476 5 6 ack 40 ------- 3 5.0 0.0 23 62
+ 0.873156 5 6 ack 40 ------- 3 5.0 0.0 22 60
- 0.873156 5 6 ack 40 ------- 3 5.0 0.0 22 60
d 0.87316 4 6 ack 40 ------- 3 5.0 0.0 22 60
d 0.87316 3 6 ack 40 ------- 3 5.0 0.0 22 60
d 0.87316 2 6 ack 40 ------- 3 5.0 0.0 22 60
- 0.874752 0 1 tcp 1040 ------- 3 0.0 5.0 28 45
r 0.87484 6 1 ack 40 ------- 3 5.0 0.0 21 58
+ 0.87484 1 0 ack 40 ------- 3 5.0 0.0 21 58
- 0.87484 1 0 ack 40 ------- 3 5.0 0.0 21 58
r 0.876432 0 1 tcp 1040 ------- 3 0.0 5.0 26 42
h 0.876432 1 6 tcp 1040 ------- 3 0.0 5.0 26 42
r 0.87684 1 0 ack 40 ------- 3 5.0 0.0 20 55
+ 0.878112 1 6 tcp 1040 ------- 3 0.0 5.0 25 41
- 0.878112 1 6 tcp 1040 ------- 3 0.0 5.0 25 41
d 0.878116 4 6 tcp 1040 ------- 3 0.0 5.0 25 41
d 0.878116 3 6 tcp 1040 ------- 3 0.0 5.0 25 41
d 0.878116 2 6 tcp 1040 ------- 3 0.0 5.0 25 41
r 0.879796 6 5 tcp 1040 ------- 3 0.0 5.0 24 39
h 0.879796 5 6 ack 40 ------- 3 5.0 0.0 24 63
+ 0.88 0 1 tcp 1040 ------- 3 0.0 5.0 39 64
+ 0.881476 5 6 ack 40 ------- 3 5.0 0.0 23 62
- 0.881476 5 6 ack 40 ------- 3 5.0 0.0 23 62
d 0.88148 4 6 ack 40 ------- 3 5.0 0.0 23 62
d 0.88148 3 6 ack 40 ------- 3 5.0 0.0 23 62
d 0.88148 2 6 ack 40 ------- 3 5.0 0.0 23 62
- 0.883072 0 1 tcp 1040 ------- 3 0.0 5.0 29 47
r 0.88316 6 1 ack 40 ------- 3 5.0 0.0 22 60
+ 0.88316 1 0 ack 40 ------- 3 5.0 0.0 22 60
- 0.88316 1 0 ack 40 ------- 3 5.0 0.0 22 60
r 0.884752 0 1 tcp 1040 ------- 3 0.0 5.0 27 44
h 0.884752 1 6 tcp 1040 ------- 3 0.0 5.0 27 44
r 0.88516 1 0 ack 40 ------- 3 5.0 0.0 21 58
+ 0.886432 1 6 tcp 1040 ------- 3 0.0 5.0 26 42
- 0.886432 1 6 tcp 1040 ------- 3 0.0 5.0 26 42
d 0.886436 4 6 tcp 1040 ------- 3 0.0 5.0 26 42
d 0.886436 3 6 tcp 1040 ------- 3 0.0 5.0 26 42
d 0.886436 2 6 tcp 1040 ------- 3 0.0 5.0 26 42
r 0.888116 6 5 tcp 1040 ------- 3 0.0 5.0 25 41
h 0.888116 5 6 ack 40 ------- 3 5.0 0.0 25 65
+ 0.889796 5 6 ack 40 ------- 3 5.0 0.0 24 63
- 0.889796 5 6 ack 40 ------- 3 5.0 0.0 24 63
d 0.8898 4 6 ack 40 ------- 3 5.0 0.0 24 63
d 0.8898 3 6 ack 40 ------- 3 5.0 0.0 24 63
d 0.8898 2 6 ack 40 ------- 3 5.0 0.0 24 63
+ 0.89 0 1 tcp 1040 ------- 3 0.0 5.0 40 66
- 0.891392 0 1 tcp 1040 ------- 3 0.0 5.0 30 48
r 0.89148 6 1 ack 40 ------- 3 5.0 0.0 23 62
+ 0.89148 1 0 ack 40 ------- 3 5.0 0.0 23 62
- 0.89148 1 0 ack 40 ------- 3 5.0 0.0 23 62
r 0.893072 0 1 tcp 1040 ------- 3 0.0 5.0 28 45
h 0.893072 1 6 tcp 1040 ------- 3 0.0 5.0 28 45
r 0.89348 1 0 ack 40 ------- 3 5.0 0.0 22 60
+ 0.894752 1 6 tcp 1040 ------- 3 0.0 5.0 27 44
- 0.894752 1 6 tcp 1040 ------- 3 0.0 5.0 27 44
d 0.894756 4 6 tcp 1040 ------- 3 0.0 5.0 27 44
d 0.894756 3 6 tcp 1040 ------- 3 0.0 5.0 27 44
d 0.894756 2 6 tcp 1040 ------- 3 0.0 5.0 27 44
r 0.896436 6 5 tcp 1040 ------- 3 0.0 5.0 26 42
h 0.896436 5 6 ack 40 ------- 3 5.0 0.0 26 67
+ 0.898116 5 6 ack 40 ------- 3 5.0 0.0 25 65
- 0.898116 5 6 ack 40 ------- 3 5.0 0.0 25 65
d 0.89812 4 6 ack 40 ------- 3 5.0 0.0 25 65
d 0.89812 3 6 ack 40 ------- 3 5.0 0.0 25 65
d 0.89812 2 6 ack 40 ------- 3 5.0 0.0 25 65
- 0.899712 0 1 tcp 1040 ------- 3 0.0 5.0 31 50
r 0.8998 6 1 ack 40 ------- 3 5.0 0.0 24 63
+ 0.8998 1 0 ack 40 ------- 3 5.0 0.0 24 63
- 0.8998 1 0 ack 40 ------- 3 5.0 0.0 24 63
+ 0.9 0 1 tcp 1040 ------- 3 0.0 5.0 41 68
r 0.901392 0 1 tcp 1040 ------- 3 0.0 5.0 29 47
h 0.901392 1 6 tcp 1040 ------- 3 0.0 5.0 29 47
r 0.9018 1 0 ack 40 ------- 3 5.0 0.0 23 62
+ 0.903072 1 6 tcp 1040 ------- 3 0.0 5.0 28 45
- 0.903072 1 6 tcp 1040 ------- 3 0.0 5.0 28 45
d 0.903076 4 6 tcp 1040 ------- 3 0.0 5.0 28 45
d 0.903076 3 6 tcp 1040 ------- 3 0.0 5.0 28 45
d 0.903076 2 6 tcp 1040 ------- 3 0.0 5.0 28 45
r 0.904756 6 5 tcp 1040 ------- 3 0.0 5.0 27 44
h 0.904756 5 6 ack 40 ------- 3 5.0 0.0 27 69
+ 0.906436 5 6 ack 40 ------- 3 5.0 0.0 26 67
- 0.906436 5 6 ack 40 ------- 3 5.0 0.0 26 67
d 0.90644 4 6 ack 40 ------- 3 5.0 0.0 26 67
d 0.90644 3 6 ack 40 ------- 3 5.0 0.0 26 67
d 0.90644 2 6 ack 40 ------- 3 5.0 0.0 26 67
- 0.908032 0 1 tcp 1040 ------- 3 0.0 5.0 32 51
r 0.90812 6 1 ack 40 ------- 3 5.0 0.0 25 65
+ 0.90812 1 0 ack 40 ------- 3 5.0 0.0 25 65
- 0.90812 1 0 ack 40 ------- 3 5.0 0.0 25 65
r 0.909712 0 1 tcp 1040 ------- 3 0.0 5.0 30 48
h 0.909712 1 6 tcp 1040 ------- 3 0.0 5.0 30 48
+ 0.91 0 1 tcp 1040 ------- 3 0.0 5.0 42 70
r 0.91012 1 0 ack 40 ------- 3 5.0 0.0 24 63
+ 0.911392 1 6 tcp 1040 ------- 3 0.0 5.0 29 47
- 0.911392 1 6 tcp 1040 ------- 3 0.0 5.0 29 47
d 0.911396 4 6 tcp 1040 ------- 3 0.0 5.0 29 47
d 0.911396 3 6 tcp 1040 ------- 3 0.0 5.0 29 47
d 0.911396 2 6 tcp 1040 ------- 3 0.0 5.0 29 47
r 0.913076 6 5 tcp 1040 ------- 3 0.0 5.0 28 45
h 0.913076 5 6 ack 40 ------- 3 5.0 0.0 28 71
+ 0.914756 5 6 ack 40 ------- 3 5.0 0.0 27 69
- 0.914756 5 6 ack 40 ------- 3 5.0 0.0 27 69
d 0.91476 4 6 ack 40 ------- 3 5.0 0.0 27 69
d 0.91476 3 6 ack 40 ------- 3 5.0 0.0 27 69
d 0.91476 2 6 ack 40 ------- 3 5.0 0.0 27 69
- 0.916352 0 1 tcp 1040 ------- 3 0.0 5.0 33 53
r 0.91644 6 1 ack 40 ------- 3 5.0 0.0 26 67
+ 0.91644 1 0 ack 40 ------- 3 5.0 0.0 26 67
- 0.91644 1 0 ack 40 ------- 3 5.0 0.0 26 67
r 0.918032 0 1 tcp 1040 ------- 3 0.0 5.0 31 50
h 0.918032 1 6 tcp 1040 ------- 3 0.0 5.0 31 50
r 0.91844 1 0 ack 40 ------- 3 5.0 0.0 25 65
+ 0.919712 1 6 tcp 1040 ------- 3 0.0 5.0 30 48
- 0.919712 1 6 tcp 1040 ------- 3 0.0 5.0 30 48
d 0.919716 4 6 tcp 1040 ------- 3 0.0 5.0 30 48
d 0.919716 3 6 tcp 1040 ------- 3 0.0 5.0 30 48
d 0.919716 2 6 tcp 1040 ------- 3 0.0 5.0 30 48
+ 0.92 0 1 tcp 1040 ------- 3 0.0 5.0 43 72
r 0.921396 6 5 tcp 1040 ------- 3 0.0 5.0 29 47
h 0.921396 5 6 ack 40 ------- 3 5.0 0.0 29 73
+ 0.923076 5 6 ack 40 ------- 3 5.0 0.0 28 71
- 0.923076 5 6 ack 40 ------- 3 5.0 0.0 28 71
d 0.92308 4 6 ack 40 ------- 3 5.0 0.0 28 71
d 0.92308 3 6 ack 40 ------- 3 5.0 0.0 28 71
d 0.92308 2 6 ack 40 ------- 3 5.0 0.0 28 71
- 0.924672 0 1 tcp 1040 ------- 3 0.0 5.0 35 56
r 0.92476 6 1 ack 40 ------- 3 5.0 0.0 27 69
+ 0.92476 1 0 ack 40 ------- 3 5.0 0.0 27 69
- 0.92476 1 0 ack 40 ------- 3 5.0 0.0 27 69
r 0.926352 0 1 tcp 1040 ------- 3 0.0 5.0 32 51
h 0.926352 1 6 tcp 1040 ------- 3 0.0 5.0 32 51
r 0.92676 1 0 ack 40 ------- 3 5.0 0.0 26 67
+ 0.928032 1 6 tcp 1040 ------- 3 0.0 5.0 31 50
- 0.928032 1 6 tcp 1040 ------- 3 0.0 5.0 31 50
d 0.928036 4 6 tcp 1040 ------- 3 0.0 5.0 31 50
d 0.928036 3 6 tcp 1040 ------- 3 0.0 5.0 31 50
d 0.928036 2 6 tcp 1040 ------- 3 0.0 5.0 31 50
r 0.929716 6 5 tcp 1040 ------- 3 0.0 5.0 30 48
h 0.929716 5 6 ack 40 ------- 3 5.0 0.0 30 74
+ 0.93 0 1 tcp 1040 ------- 3 0.0 5.0 44 75
+ 0.931396 5 6 ack 40 ------- 3 5.0 0.0 29 73
- 0.931396 5 6 ack 40 ------- 3 5.0 0.0 29 73
d 0.9314 4 6 ack 40 ------- 3 5.0 0.0 29 73
d 0.9314 3 6 ack 40 ------- 3 5.0 0.0 29 73
d 0.9314 2 6 ack 40 ------- 3 5.0 0.0 29 73
- 0.932992 0 1 tcp 1040 ------- 3 0.0 5.0 37 59
r 0.93308 6 1 ack 40 ------- 3 5.0 0.0 28 71
+ 0.93308 1 0 ack 40 ------- 3 5.0 0.0 28 71
- 0.93308 1 0 ack 40 ------- 3 5.0 0.0 28 71
r 0.934672 0 1 tcp 1040 ------- 3 0.0 5.0 33 53
h 0.934672 1 6 tcp 1040 ------- 3 0.0 5.0 33 53
r 0.93508 1 0 ack 40 ------- 3 5.0 0.0 27 69
+ 0.936352 1 6 tcp 1040 ------- 3 0.0 5.0 32 51
- 0.936352 1 6 tcp 1040 ------- 3 0.0 5.0 32 51
d 0.936356 4 6 tcp 1040 ------- 3 0.0 5.0 32 51
d 0.936356 3 6 tcp 1040 ------- 3 0.0 5.0 32 51
d 0.936356 2 6 tcp 1040 ------- 3 0.0 5.0 32 51
r 0.938036 6 5 tcp 1040 ------- 3 0.0 5.0 31 50
h 0.938036 5 6 ack 40 ------- 3 5.0 0.0 31 76
+ 0.939716 5 6 ack 40 ------- 3 5.0 0.0 30 74
- 0.939716 5 6 ack 40 ------- 3 5.0 0.0 30 74
d 0.93972 4 6 ack 40 ------- 3 5.0 0.0 30 74