V -t * -v 1.0a5 -a 0
A -t * -n 1 -p 0 -o 0x7fffffff -c 30 -a 1
A -t * -h 1 -m 1073741823 -s 0
n -t * -a 4 -s 4 -S UP -v circle -c black -i black
n -t * -a 0 -s 0 -S UP -v circle -c black -i black
n -t * -a 5 -s 5 -S UP -v circle -c black -i black
n -t * -a 1 -s 1 -S UP -v circle -c black -i black
n -t * -a 6 -s 6 -S UP -v circle -c black -i black
n -t * -a 2 -s 2 -S UP -v circle -c black -i black
n -t * -a 3 -s 3 -S UP -v circle -c black -i black
l -t * -s 0 -d 1 -S UP -r 512000 -D 0.0050000000000000001 -c black -o right-down
l -t * -s 1 -d 2 -S UP -r 512000 -D 0.0050000000000000001 -c black -o down
l -t * -s 2 -d 3 -S UP -r 512000 -D 0.0050000000000000001 -c black -o left-down
l -t * -s 3 -d 4 -S UP -r 512000 -D 0.0050000000000000001 -c black -o left-up
l -t * -s 4 -d 5 -S UP -r 512000 -D 0.0050000000000000001 -c black -o up
l -t * -s 5 -d 6 -S UP -r 512000 -D 0.0050000000000000001 -c black -o right-up
l -t * -s 0 -d 6 -S UP -r 512000 -D 0.0050000000000000001 -c black -o left
q -t * -s 0 -d 6 -a 1
q -t * -s 6 -d 0 -a 1
q -t * -s 0 -d 1 -a 1
q -t * -s 1 -d 0 -a 1
+ -t 0.000169788487334637 -s 0 -d 1 -p rtProtoDV -e 7 -c 0 -i 0 -a 0 -x {0.2 1.1 -1 ------- null}
- -t 0.000169788487334637 -s 0 -d 1 -p rtProtoDV -e 7 -c 0 -i 0 -a 0 -x {0.2 1.1 -1 ------- null}
h -t 0.000169788487334637 -s 0 -d 1 -p rtProtoDV -e 7 -c 0 -i 0 -a 0 -x {0.2 1.1 -1 ------- null}
+ -t 0.000169788487334637 -s 0 -d 6 -p rtProtoDV -e 7 -c 0 -i 1 -a 0 -x {0.2 6.1 -1 ------- null}
- -t 0.000169788487334637 -s 0 -d 6 -p rtProtoDV -e 7 -c 0 -i 1 -a 0 -x {0.2 6.1 -1 ------- null}
h -t 0.000169788487334637 -s 0 -d 6 -p rtProtoDV -e 7 -c 0 -i 1 -a 0 -x {0.2 6.1 -1 ------- null}
r -t 0.00527916348733464 -s 0 -d 1 -p rtProtoDV -e 7 -c 0 -i 0 -a 0 -x {0.2 1.1 -1 ------- null}
+ -t 0.00527916348733464 -s 1 -d 0 -p rtProtoDV -e 7 -c 0 -i 2 -a 0 -x {1.1 0.2 -1 ------- null}
- -t 0.00527916348733464 -s 1 -d 0 -p rtProtoDV -e 7 -c 0 -i 2 -a 0 -x {1.1 0.2 -1 ------- null}
h -t 0.00527916348733464 -s 1 -d 0 -p rtProtoDV -e 7 -c 0 -i 2 -a 0 -x {1.1 0.2 -1 ------- null}
+ -t 0.00527916348733464 -s 1 -d 2 -p rtProtoDV -e 7 -c 0 -i 3 -a 0 -x {1.1 2.1 -1 ------- null}
- -t 0.00527916348733464 -s 1 -d 2 -p rtProtoDV -e 7 -c 0 -i 3 -a 0 -x {1.1 2.1 -1 ------- null}
h -t 0.00527916348733464 -s 1 -d 2 -p rtProtoDV -e 7 -c 0 -i 3 -a 0 -x {1.1 2.1 -1 ------- null}
r -t 0.00527916348733464 -s 0 -d 6 -p rtProtoDV -e 7 -c 0 -i 1 -a 0 -x {0.2 6.1 -1 ------- null}
+ -t 0.00527916348733464 -s 6 -d 0 -p rtProtoDV -e 7 -c 0 -i 4 -a 0 -x {6.1 0.2 -1 ------- null}
- -t 0.00527916348733464 -s 6 -d 0 -p rtProtoDV -e 7 -c 0 -i 4 -a 0 -x {6.1 0.2 -1 ------- null}
h -t 0.00527916348733464 -s 6 -d 0 -p rtProtoDV -e 7 -c 0 -i 4 -a 0 -x {6.1 0.2 -1 ------- null}
+ -t 0.00527916348733464 -s 6 -d 5 -p rtProtoDV -e 7 -c 0 -i 5 -a 0 -x {6.1 5.1 -1 ------- null}
- -t 0.00527916348733464 -s 6 -d 5 -p rtProtoDV -e 7 -c 0 -i 5 -a 0 -x {6.1 5.1 -1 ------- null}
h -t 0.00527916348733464 -s 6 -d 5 -p rtProtoDV -e 7 -c 0 -i 5 -a 0 -x {6.1 5.1 -1 ------- null}
+ -t 0.00710233021858257 -s 2 -d 1 -p rtProtoDV -e 7 -c 0 -i 6 -a 0 -x {2.1 1.1 -1 ------- null}
- -t 0.00710233021858257 -s 2 -d 1 -p rtProtoDV -e 7 -c 0 -i 6 -a 0 -x {2.1 1.1 -1 ------- null}
h -t 0.00710233021858257 -s 2 -d 1 -p rtProtoDV -e 7 -c 0 -i 6 -a 0 -x {2.1 1.1 -1 ------- null}
+ -t 0.00710233021858257 -s 2 -d 3 -p rtProtoDV -e 7 -c 0 -i 7 -a 0 -x {2.1 3.2 -1 ------- null}
- -t 0.00710233021858257 -s 2 -d 3 -p rtProtoDV -e 7 -c 0 -i 7 -a 0 -x {2.1 3.2 -1 ------- null}
h -t 0.00710233021858257 -s 2 -d 3 -p rtProtoDV -e 7 -c 0 -i 7 -a 0 -x {2.1 3.2 -1 ------- null}
r -t 0.0103885384873346 -s 1 -d 0 -p rtProtoDV -e 7 -c 0 -i 2 -a 0 -x {1.1 0.2 -1 ------- null}
+ -t 0.0103885384873346 -s 0 -d 1 -p rtProtoDV -e 7 -c 0 -i 9 -a 0 -x {0.2 1.1 -1 ------- null}
- -t 0.0103885384873346 -s 0 -d 1 -p rtProtoDV -e 7 -c 0 -i 9 -a 0 -x {0.2 1.1 -1 ------- null}
h -t 0.0103885384873346 -s 0 -d 1 -p rtProtoDV -e 7 -c 0 -i 9 -a 0 -x {0.2 1.1 -1 ------- null}
+ -t 0.0103885384873346 -s 0 -d 6 -p rtProtoDV -e 7 -c 0 -i 10 -a 0 -x {0.2 6.1 -1 ------- null}
- -t 0.0103885384873346 -s 0 -d 6 -p rtProtoDV -e 7 -c 0 -i 10 -a 0 -x {0.2 6.1 -1 ------- null}
h -t 0.0103885384873346 -s 0 -d 6 -p rtProtoDV -e 7 -c 0 -i 10 -a 0 -x {0.2 6.1 -1 ------- null}
r -t 0.0103885384873346 -s 1 -d 2 -p rtProtoDV -e 7 -c 0 -i 3 -a 0 -x {1.1 2.1 -1 ------- null}
+ -t 0.0103885384873346 -s 2 -d 1 -p rtProtoDV -e 7 -c 0 -i 11 -a 0 -x {2.1 1.1 -1 ------- null}
- -t 0.0103885384873346 -s 2 -d 1 -p rtProtoDV -e 7 -c 0 -i 11 -a 0 -x {2.1 1.1 -1 ------- null}
h -t 0.0103885384873346 -s 2 -d 1 -p rtProtoDV -e 7 -c 0 -i 11 -a 0 -x {2.1 1.1 -1 ------- null}
+ -t 0.0103885384873346 -s 2 -d 3 -p rtProtoDV -e 7 -c 0 -i 12 -a 0 -x {2.1 3.2 -1 ------- null}
- -t 0.0103885384873346 -s 2 -d 3 -p rtProtoDV -e 7 -c 0 -i 12 -a 0 -x {2.1 3.2 -1 ------- null}
h -t 0.0103885384873346 -s 2 -d 3 -p rtProtoDV -e 7 -c 0 -i 12 -a 0 -x {2.1 3.2 -1 ------- null}
r -t 0.0103885384873346 -s 6 -d 0 -p rtProtoDV -e 7 -c 0 -i 4 -a 0 -x {6.1 0.2 -1 ------- null}
+ -t 0.0103885384873346 -s 0 -d 1 -p rtProtoDV -e 7 -c 0 -i 13 -a 0 -x {0.2 1.1 -1 ------- null}
+ -t 0.0103885384873346 -s 0 -d 6 -p rtProtoDV -e 7 -c 0 -i 14 -a 0 -x {0.2 6.1 -1 ------- null}
r -t 0.0103885384873346 -s 6 -d 5 -p rtProtoDV -e 7 -c 0 -i 5 -a 0 -x {6.1 5.1 -1 ------- null}
+ -t 0.0103885384873346 -s 5 -d 4 -p rtProtoDV -e 7 -c 0 -i 15 -a 0 -x {5.1 4.1 -1 ------- null}
- -t 0.0103885384873346 -s 5 -d 4 -p rtProtoDV -e 7 -c 0 -i 15 -a 0 -x {5.1 4.1 -1 ------- null}
h -t 0.0103885384873346 -s 5 -d 4 -p rtProtoDV -e 7 -c 0 -i 15 -a 0 -x {5.1 4.1 -1 ------- null}
+ -t 0.0103885384873346 -s 5 -d 6 -p rtProtoDV -e 7 -c 0 -i 16 -a 0 -x {5.1 6.1 -1 ------- null}
- -t 0.0103885384873346 -s 5 -d 6 -p rtProtoDV -e 7 -c 0 -i 16 -a 0 -x {5.1 6.1 -1 ------- null}
h -t 0.0103885384873346 -s 5 -d 6 -p rtProtoDV -e 7 -c 0 -i 16 -a 0 -x {5.1 6.1 -1 ------- null}
- -t 0.0104979134873346 -s 0 -d 1 -p rtProtoDV -e 7 -c 0 -i 13 -a 0 -x {0.2 1.1 -1 ------- null}
h -t 0.0104979134873346 -s 0 -d 1 -p rtProtoDV -e 7 -c 0 -i 13 -a 0 -x {0.2 1.1 -1 ------- null}
- -t 0.0104979134873346 -s 0 -d 6 -p rtProtoDV -e 7 -c 0 -i 14 -a 0 -x {0.2 6.1 -1 ------- null}
h -t 0.0104979134873346 -s 0 -d 6 -p rtProtoDV -e 7 -c 0 -i 14 -a 0 -x {0.2 6.1 -1 ------- null}
r -t 0.0122117052185826 -s 2 -d 1 -p rtProtoDV -e 7 -c 0 -i 6 -a 0 -x {2.1 1.1 -1 ------- null}
+ -t 0.0122117052185826 -s 1 -d 0 -p rtProtoDV -e 7 -c 0 -i 17 -a 0 -x {1.1 0.2 -1 ------- null}
- -t 0.0122117052185826 -s 1 -d 0 -p rtProtoDV -e 7 -c 0 -i 17 -a 0 -x {1.1 0.2 -1 ------- null}
h -t 0.0122117052185826 -s 1 -d 0 -p rtProtoDV -e 7 -c 0 -i 17 -a 0 -x {1.1 0.2 -1 ------- null}
+ -t 0.0122117052185826 -s 1 -d 2 -p rtProtoDV -e 7 -c 0 -i 18 -a 0 -x {1.1 2.1 -1 ------- null}
- -t 0.0122117052185826 -s 1 -d 2 -p rtProtoDV -e 7 -c 0 -i 18 -a 0 -x {1.1 2.1 -1 ------- null}
h -t 0.0122117052185826 -s 1 -d 2 -p rtProtoDV -e 7 -c 0 -i 18 -a 0 -x {1.1 2.1 -1 ------- null}
r -t 0.0122117052185826 -s 2 -d 3 -p rtProtoDV -e 7 -c 0 -i 7 -a 0 -x {2.1 3.2 -1 ------- null}
+ -t 0.0122117052185826 -s 3 -d 2 -p rtProtoDV -e 7 -c 0 -i 19 -a 0 -x {3.2 2.1 -1 ------- null}
- -t 0.0122117052185826 -s 3 -d 2 -p rtProtoDV -e 7 -c 0 -i 19 -a 0 -x {3.2 2.1 -1 ------- null}
h -t 0.0122117052185826 -s 3 -d 2 -p rtProtoDV -e 7 -c 0 -i 19 -a 0 -x {3.2 2.1 -1 ------- null}
+ -t 0.0122117052185826 -s 3 -d 4 -p rtProtoDV -e 7 -c 0 -i 20 -a 0 -x {3.2 4.1 -1 ------- null}
- -t 0.0122117052185826 -s 3 -d 4 -p rtProtoDV -e 7 -c 0 -i 20 -a 0 -x {3.2 4.1 -1 ------- null}
h -t 0.0122117052185826 -s 3 -d 4 -p rtProtoDV -e 7 -c 0 -i 20 -a 0 -x {3.2 4.1 -1 ------- null}
r -t 0.0154979134873346 -s 0 -d 1 -p rtProtoDV -e 7 -c 0 -i 9 -a 0 -x {0.2 1.1 -1 ------- null}
r -t 0.0154979134873346 -s 0 -d 6 -p rtProtoDV -e 7 -c 0 -i 10 -a 0 -x {0.2 6.1 -1 ------- null}
+ -t 0.0154979134873346 -s 6 -d 0 -p rtProtoDV -e 7 -c 0 -i 21 -a 0 -x {6.1 0.2 -1 ------- null}
- -t 0.0154979134873346 -s 6 -d 0 -p rtProtoDV -e 7 -c 0 -i 21 -a 0 -x {6.1 0.2 -1 ------- null}
h -t 0.0154979134873346 -s 6 -d 0 -p rtProtoDV -e 7 -c 0 -i 21 -a 0 -x {6.1 0.2 -1 ------- null}
+ -t 0.0154979134873346 -s 6 -d 5 -p rtProtoDV -e 7 -c 0 -i 22 -a 0 -x {6.1 5.1 -1 ------- null}
- -t 0.0154979134873346 -s 6 -d 5 -p rtProtoDV -e 7 -c 0 -i 22 -a 0 -x {6.1 5.1 -1 ------- null}
h -t 0.0154979134873346 -s 6 -d 5 -p rtProtoDV -e 7 -c 0 -i 22 -a 0 -x {6.1 5.1 -1 ------- null}
r -t 0.0154979134873346 -s 2 -d 1 -p rtProtoDV -e 7 -c 0 -i 11 -a 0 -x {2.1 1.1 -1 ------- null}
r -t 0.0154979134873346 -s 2 -d 3 -p rtProtoDV -e 7 -c 0 -i 12 -a 0 -x {2.1 3.2 -1 ------- null}
+ -t 0.0154979134873346 -s 3 -d 2 -p rtProtoDV -e 7 -c 0 -i 23 -a 0 -x {3.2 2.1 -1 ------- null}
- -t 0.0154979134873346 -s 3 -d 2 -p rtProtoDV -e 7 -c 0 -i 23 -a 0 -x {3.2 2.1 -1 ------- null}
h -t 0.0154979134873346 -s 3 -d 2 -p rtProtoDV -e 7 -c 0 -i 23 -a 0 -x {3.2 2.1 -1 ------- null}
+ -t 0.0154979134873346 -s 3 -d 4 -p rtProtoDV -e 7 -c 0 -i 24 -a 0 -x {3.2 4.1 -1 ------- null}
- -t 0.0154979134873346 -s 3 -d 4 -p rtProtoDV -e 7 -c 0 -i 24 -a 0 -x {3.2 4.1 -1 ------- null}
h -t 0.0154979134873346 -s 3 -d 4 -p rtProtoDV -e 7 -c 0 -i 24 -a 0 -x {3.2 4.1 -1 ------- null}
r -t 0.0154979134873346 -s 5 -d 4 -p rtProtoDV -e 7 -c 0 -i 15 -a 0 -x {5.1 4.1 -1 ------- null}
+ -t 0.0154979134873346 -s 4 -d 3 -p rtProtoDV -e 7 -c 0 -i 25 -a 0 -x {4.1 3.2 -1 ------- null}
- -t 0.0154979134873346 -s 4 -d 3 -p rtProtoDV -e 7 -c 0 -i 25 -a 0 -x {4.1 3.2 -1 ------- null}
h -t 0.0154979134873346 -s 4 -d 3 -p rtProtoDV -e 7 -c 0 -i 25 -a 0 -x {4.1 3.2 -1 ------- null}
+ -t 0.0154979134873346 -s 4 -d 5 -p rtProtoDV -e 7 -c 0 -i 26 -a 0 -x {4.1 5.1 -1 ------- null}
- -t 0.0154979134873346 -s 4 -d 5 -p rtProtoDV -e 7 -c 0 -i 26 -a 0 -x {4.1 5.1 -1 ------- null}
h -t 0.0154979134873346 -s 4 -d 5 -p rtProtoDV -e 7 -c 0 -i 26 -a 0 -x {4.1 5.1 -1 ------- null}
r -t 0.0154979134873346 -s 5 -d 6 -p rtProtoDV -e 7 -c 0 -i 16 -a 0 -x {5.1 6.1 -1 ------- null}
+ -t 0.0154979134873346 -s 6 -d 0 -p rtProtoDV -e 7 -c 0 -i 27 -a 0 -x {6.1 0.2 -1 ------- null}
+ -t 0.0154979134873346 -s 6 -d 5 -p rtProtoDV -e 7 -c 0 -i 28 -a 0 -x {6.1 5.1 -1 ------- null}
- -t 0.0156072884873346 -s 6 -d 0 -p rtProtoDV -e 7 -c 0 -i 27 -a 0 -x {6.1 0.2 -1 ------- null}
h -t 0.0156072884873346 -s 6 -d 0 -p rtProtoDV -e 7 -c 0 -i 27 -a 0 -x {6.1 0.2 -1 ------- null}
- -t 0.0156072884873346 -s 6 -d 5 -p rtProtoDV -e 7 -c 0 -i 28 -a 0 -x {6.1 5.1 -1 ------- null}
h -t 0.0156072884873346 -s 6 -d 5 -p rtProtoDV -e 7 -c 0 -i 28 -a 0 -x {6.1 5.1 -1 ------- null}
r -t 0.0156072884873346 -s 0 -d 1 -p rtProtoDV -e 7 -c 0 -i 13 -a 0 -x {0.2 1.1 -1 ------- null}
+ -t 0.0156072884873346 -s 1 -d 0 -p rtProtoDV -e 7 -c 0 -i 29 -a 0 -x {1.1 0.2 -1 ------- null}
- -t 0.0156072884873346 -s 1 -d 0 -p rtProtoDV -e 7 -c 0 -i 29 -a 0 -x {1.1 0.2 -1 ------- null}
h -t 0.0156072884873346 -s 1 -d 0 -p rtProtoDV -e 7 -c 0 -i 29 -a 0 -x {1.1 0.2 -1 ------- null}
+ -t 0.0156072884873346 -s 1 -d 2 -p rtProtoDV -e 7 -c 0 -i 30 -a 0 -x {1.1 2.1 -1 ------- null}
- -t 0.0156072884873346 -s 1 -d 2 -p rtProtoDV -e 7 -c 0 -i 30 -a 0 -x {1.1 2.1 -1 ------- null}
h -t 0.0156072884873346 -s 1 -d 2 -p rtProtoDV -e 7 -c 0 -i 30 -a 0 -x {1.1 2.1 -1 ------- null}
r -t 0.0156072884873346 -s 0 -d 6 -p rtProtoDV -e 7 -c 0 -i 14 -a 0 -x {0.2 6.1 -1 ------- null}
r -t 0.0173210802185826 -s 1 -d 0 -p rtProtoDV -e 7 -c 0 -i 17 -a 0 -x {1.1 0.2 -1 ------- null}
+ -t 0.0173210802185826 -s 0 -d 1 -p rtProtoDV -e 7 -c 0 -i 31 -a 0 -x {0.2 1.1 -1 ------- null}
- -t 0.0173210802185826 -s 0 -d 1 -p rtProtoDV -e 7 -c 0 -i 31 -a 0 -x {0.2 1.1 -1 ------- null}
h -t 0.0173210802185826 -s 0 -d 1 -p rtProtoDV -e 7 -c 0 -i 31 -a 0 -x {0.2 1.1 -1 ------- null}
+ -t 0.0173210802185826 -s 0 -d 6 -p rtProtoDV -e 7 -c 0 -i 32 -a 0 -x {0.2 6.1 -1 ------- null}
- -t 0.0173210802185826 -s 0 -d 6 -p rtProtoDV -e 7 -c 0 -i 32 -a 0 -x {0.2 6.1 -1 ------- null}
h -t 0.0173210802185826 -s 0 -d 6 -p rtProtoDV -e 7 -c 0 -i 32 -a 0 -x {0.2 6.1 -1 ------- null}
r -t 0.0173210802185826 -s 1 -d 2 -p rtProtoDV -e 7 -c 0 -i 18 -a 0 -x {1.1 2.1 -1 ------- null}
r -t 0.0173210802185826 -s 3 -d 2 -p rtProtoDV -e 7 -c 0 -i 19 -a 0 -x {3.2 2.1 -1 ------- null}
+ -t 0.0173210802185826 -s 2 -d 1 -p rtProtoDV -e 7 -c 0 -i 33 -a 0 -x {2.1 1.1 -1 ------- null}
- -t 0.0173210802185826 -s 2 -d 1 -p rtProtoDV -e 7 -c 0 -i 33 -a 0 -x {2.1 1.1 -1 ------- null}
h -t 0.0173210802185826 -s 2 -d 1 -p rtProtoDV -e 7 -c 0 -i 33 -a 0 -x {2.1 1.1 -1 ------- null}
+ -t 0.0173210802185826 -s 2 -d 3 -p rtProtoDV -e 7 -c 0 -i 34 -a 0 -x {2.1 3.2 -1 ------- null}
- -t 0.0173210802185826 -s 2 -d 3 -p rtProtoDV -e 7 -c 0 -i 34 -a 0 -x {2.1 3.2 -1 ------- null}
h -t 0.0173210802185826 -s 2 -d 3 -p rtProtoDV -e 7 -c 0 -i 34 -a 0 -x {2.1 3.2 -1 ------- null}
r -t 0.0173210802185826 -s 3 -d 4 -p rtProtoDV -e 7 -c 0 -i 20 -a 0 -x {3.2 4.1 -1 ------- null}
+ -t 0.0173210802185826 -s 4 -d 3 -p rtProtoDV -e 7 -c 0 -i 35 -a 0 -x {4.1 3.2 -1 ------- null}
- -t 0.0173210802185826 -s 4 -d 3 -p rtProtoDV -e 7 -c 0 -i 35 -a 0 -x {4.1 3.2 -1 ------- null}
h -t 0.0173210802185826 -s 4 -d 3 -p rtProtoDV -e 7 -c 0 -i 35 -a 0 -x {4.1 3.2 -1 ------- null}
+ -t 0.0173210802185826 -s 4 -d 5 -p rtProtoDV -e 7 -c 0 -i 36 -a 0 -x {4.1 5.1 -1 ------- null}
- -t 0.0173210802185826 -s 4 -d 5 -p rtProtoDV -e 7 -c 0 -i 36 -a 0 -x {4.1 5.1 -1 ------- null}
h -t 0.0173210802185826 -s 4 -d 5 -p rtProtoDV -e 7 -c 0 -i 36 -a 0 -x {4.1 5.1 -1 ------- null}
+ -t 0.02 -s 0 -d 1 -p cbr -e 500 -c 0 -i 37 -a 0 -x {0.0 3.0 1 ------- null}
- -t 0.02 -s 0 -d 1 -p cbr -e 500 -c 0 -i 37 -a 0 -x {0.0 3.0 1 ------- null}
h -t 0.02 -s 0 -d 1 -p cbr -e 500 -c 0 -i 37 -a 0 -x {0.0 3.0 -1 ------- null}
r -t 0.0206072884873346 -s 6 -d 0 -p rtProtoDV -e 7 -c 0 -i 21 -a 0 -x {6.1 0.2 -1 ------- null}
r -t 0.0206072884873346 -s 6 -d 5 -p rtProtoDV -e 7 -c 0 -i 22 -a 0 -x {6.1 5.1 -1 ------- null}
+ -t 0.0206072884873346 -s 5 -d 4 -p rtProtoDV -e 7 -c 0 -i 38 -a 0 -x {5.1 4.1 -1 ------- null}
- -t 0.0206072884873346 -s 5 -d 4 -p rtProtoDV -e 7 -c 0 -i 38 -a 0 -x {5.1 4.1 -1 ------- null}
h -t 0.0206072884873346 -s 5 -d 4 -p rtProtoDV -e 7 -c 0 -i 38 -a 0 -x {5.1 4.1 -1 ------- null}
+ -t 0.0206072884873346 -s 5 -d 6 -p rtProtoDV -e 7 -c 0 -i 39 -a 0 -x {5.1 6.1 -1 ------- null}
- -t 0.0206072884873346 -s 5 -d 6 -p rtProtoDV -e 7 -c 0 -i 39 -a 0 -x {5.1 6.1 -1 ------- null}
h -t 0.0206072884873346 -s 5 -d 6 -p rtProtoDV -e 7 -c 0 -i 39 -a 0 -x {5.1 6.1 -1 ------- null}
r -t 0.0206072884873346 -s 3 -d 2 -p rtProtoDV -e 7 -c 0 -i 23 -a 0 -x {3.2 2.1 -1 ------- null}
r -t 0.0206072884873346 -s 3 -d 4 -p rtProtoDV -e 7 -c 0 -i 24 -a 0 -x {3.2 4.1 -1 ------- null}
r -t 0.0206072884873346 -s 4 -d 3 -p rtProtoDV -e 7 -c 0 -i 25 -a 0 -x {4.1 3.2 -1 ------- null}
+ -t 0.0206072884873346 -s 3 -d 2 -p rtProtoDV -e 7 -c 0 -i 40 -a 0 -x {3.2 2.1 -1 ------- null}
- -t 0.0206072884873346 -s 3 -d 2 -p rtProtoDV -e 7 -c 0 -i 40 -a 0 -x {3.2 2.1 -1 ------- null}
h -t 0.0206072884873346 -s 3 -d 2 -p rtProtoDV -e 7 -c 0 -i 40 -a 0 -x {3.2 2.1 -1 ------- null}
+ -t 0.0206072884873346 -s 3 -d 4 -p rtProtoDV -e 7 -c 0 -i 41 -a 0 -x {3.2 4.1 -1 ------- null}
- -t 0.0206072884873346 -s 3 -d 4 -p rtProtoDV -e 7 -c 0 -i 41 -a 0 -x {3.2 4.1 -1 ------- null}
h -t 0.0206072884873346 -s 3 -d 4 -p rtProtoDV -e 7 -c 0 -i 41 -a 0 -x {3.2 4.1 -1 ------- null}
r -t 0.0206072884873346 -s 4 -d 5 -p rtProtoDV -e 7 -c 0 -i 26 -a 0 -x {4.1 5.1 -1 ------- null}
+ -t 0.0206072884873346 -s 5 -d 4 -p rtProtoDV -e 7 -c 0 -i 42 -a 0 -x {5.1 4.1 -1 ------- null}
+ -t 0.0206072884873346 -s 5 -d 6 -p rtProtoDV -e 7 -c 0 -i 43 -a 0 -x {5.1 6.1 -1 ------- null}
- -t 0.0207166634873346 -s 5 -d 4 -p rtProtoDV -e 7 -c 0 -i 42 -a 0 -x {5.1 4.1 -1 ------- null}
h -t 0.0207166634873346 -s 5 -d 4 -p rtProtoDV -e 7 -c 0 -i 42 -a 0 -x {5.1 4.1 -1 ------- null}
- -t 0.0207166634873346 -s 5 -d 6 -p rtProtoDV -e 7 -c 0 -i 43 -a 0 -x {5.1 6.1 -1 ------- null}
h -t 0.0207166634873346 -s 5 -d 6 -p rtProtoDV -e 7 -c 0 -i 43 -a 0 -x {5.1 6.1 -1 ------- null}
r -t 0.0207166634873346 -s 6 -d 0 -p rtProtoDV -e 7 -c 0 -i 27 -a 0 -x {6.1 0.2 -1 ------- null}
+ -t 0.0207166634873346 -s 0 -d 1 -p rtProtoDV -e 7 -c 0 -i 44 -a 0 -x {0.2 1.1 -1 ------- null}
+ -t 0.0207166634873346 -s 0 -d 6 -p rtProtoDV -e 7 -c 0 -i 45 -a 0 -x {0.2 6.1 -1 ------- null}
- -t 0.0207166634873346 -s 0 -d 6 -p rtProtoDV -e 7 -c 0 -i 45 -a 0 -x {0.2 6.1 -1 ------- null}
h -t 0.0207166634873346 -s 0 -d 6 -p rtProtoDV -e 7 -c 0 -i 45 -a 0 -x {0.2 6.1 -1 ------- null}
r -t 0.0207166634873346 -s 6 -d 5 -p rtProtoDV -e 7 -c 0 -i 28 -a 0 -x {6.1 5.1 -1 ------- null}
r -t 0.0207166634873346 -s 1 -d 0 -p rtProtoDV -e 7 -c 0 -i 29 -a 0 -x {1.1 0.2 -1 ------- null}
r -t 0.0207166634873346 -s 1 -d 2 -p rtProtoDV -e 7 -c 0 -i 30 -a 0 -x {1.1 2.1 -1 ------- null}
+ -t 0.0207166634873346 -s 2 -d 1 -p rtProtoDV -e 7 -c 0 -i 46 -a 0 -x {2.1 1.1 -1 ------- null}
- -t 0.0207166634873346 -s 2 -d 1 -p rtProtoDV -e 7 -c 0 -i 46 -a 0 -x {2.1 1.1 -1 ------- null}
h -t 0.0207166634873346 -s 2 -d 1 -p rtProtoDV -e 7 -c 0 -i 46 -a 0 -x {2.1 1.1 -1 ------- null}
+ -t 0.0207166634873346 -s 2 -d 3 -p rtProtoDV -e 7 -c 0 -i 47 -a 0 -x {2.1 3.2 -1 ------- null}
- -t 0.0207166634873346 -s 2 -d 3 -p rtProtoDV -e 7 -c 0 -i 47 -a 0 -x {2.1 3.2 -1 ------- null}
h -t 0.0207166634873346 -s 2 -d 3 -p rtProtoDV -e 7 -c 0 -i 47 -a 0 -x {2.1 3.2 -1 ------- null}
r -t 0.0224304552185826 -s 0 -d 1 -p rtProtoDV -e 7 -c 0 -i 31 -a 0 -x {0.2 1.1 -1 ------- null}
r -t 0.0224304552185826 -s 0 -d 6 -p rtProtoDV -e 7 -c 0 -i 32 -a 0 -x {0.2 6.1 -1 ------- null}
+ -t 0.0224304552185826 -s 6 -d 0 -p rtProtoDV -e 7 -c 0 -i 48 -a 0 -x {6.1 0.2 -1 ------- null}
- -t 0.0224304552185826 -s 6 -d 0 -p rtProtoDV -e 7 -c 0 -i 48 -a 0 -x {6.1 0.2 -1 ------- null}
h -t 0.0224304552185826 -s 6 -d 0 -p rtProtoDV -e 7 -c 0 -i 48 -a 0 -x {6.1 0.2 -1 ------- null}
+ -t 0.0224304552185826 -s 6 -d 5 -p rtProtoDV -e 7 -c 0 -i 49 -a 0 -x {6.1 5.1 -1 ------- null}
- -t 0.0224304552185826 -s 6 -d 5 -p rtProtoDV -e 7 -c 0 -i 49 -a 0 -x {6.1 5.1 -1 ------- null}
h -t 0.0224304552185826 -s 6 -d 5 -p rtProtoDV -e 7 -c 0 -i 49 -a 0 -x {6.1 5.1 -1 ------- null}
r -t 0.0224304552185826 -s 2 -d 1 -p rtProtoDV -e 7 -c 0 -i 33 -a 0 -x {2.1 1.1 -1 ------- null}
+ -t 0.0224304552185826 -s 1 -d 0 -p rtProtoDV -e 7 -c 0 -i 50 -a 0 -x {1.1 0.2 -1 ------- null}
- -t 0.0224304552185826 -s 1 -d 0 -p rtProtoDV -e 7 -c 0 -i 50 -a 0 -x {1.1 0.2 -1 ------- null}
h -t 0.0224304552185826 -s 1 -d 0 -p rtProtoDV -e 7 -c 0 -i 50 -a 0 -x {1.1 0.2 -1 ------- null}
+ -t 0.0224304552185826 -s 1 -d 2 -p rtProtoDV -e 7 -c 0 -i 51 -a 0 -x {1.1 2.1 -1 ------- null}
- -t 0.0224304552185826 -s 1 -d 2 -p rtProtoDV -e 7 -c 0 -i 51 -a 0 -x {1.1 2.1 -1 ------- null}
h -t 0.0224304552185826 -s 1 -d 2 -p rtProtoDV -e 7 -c 0 -i 51 -a 0 -x {1.1 2.1 -1 ------- null}
r -t 0.0224304552185826 -s 2 -d 3 -p rtProtoDV -e 7 -c 0 -i 34 -a 0 -x {2.1 3.2 -1 ------- null}
r -t 0.0224304552185826 -s 4 -d 3 -p rtProtoDV -e 7 -c 0 -i 35 -a 0 -x {4.1 3.2 -1 ------- null}
r -t 0.0224304552185826 -s 4 -d 5 -p rtProtoDV -e 7 -c 0 -i 36 -a 0 -x {4.1 5.1 -1 ------- null}
+ -t 0.0224304552185826 -s 5 -d 4 -p rtProtoDV -e 7 -c 0 -i 52 -a 0 -x {5.1 4.1 -1 ------- null}
- -t 0.0224304552185826 -s 5 -d 4 -p rtProtoDV -e 7 -c 0 -i 52 -a 0 -x {5.1 4.1 -1 ------- null}
h -t 0.0224304552185826 -s 5 -d 4 -p rtProtoDV -e 7 -c 0 -i 52 -a 0 -x {5.1 4.1 -1 ------- null}
+ -t 0.0224304552185826 -s 5 -d 6 -p rtProtoDV -e 7 -c 0 -i 53 -a 0 -x {5.1 6.1 -1 ------- null}
- -t 0.0224304552185826 -s 5 -d 6 -p rtProtoDV -e 7 -c 0 -i 53 -a 0 -x {5.1 6.1 -1 ------- null}
h -t 0.0224304552185826 -s 5 -d 6 -p rtProtoDV -e 7 -c 0 -i 53 -a 0 -x {5.1 6.1 -1 ------- null}
r -t 0.0257166634873346 -s 5 -d 4 -p rtProtoDV -e 7 -c 0 -i 38 -a 0 -x {5.1 4.1 -1 ------- null}
r -t 0.0257166634873346 -s 5 -d 6 -p rtProtoDV -e 7 -c 0 -i 39 -a 0 -x {5.1 6.1 -1 ------- null}
r -t 0.0257166634873346 -s 3 -d 2 -p rtProtoDV -e 7 -c 0 -i 40 -a 0 -x {3.2 2.1 -1 ------- null}
+ -t 0.0257166634873346 -s 2 -d 1 -p rtProtoDV -e 7 -c 0 -i 54 -a 0 -x {2.1 1.1 -1 ------- null}
- -t 0.0257166634873346 -s 2 -d 1 -p rtProtoDV -e 7 -c 0 -i 54 -a 0 -x {2.1 1.1 -1 ------- null}
h -t 0.0257166634873346 -s 2 -d 1 -p rtProtoDV -e 7 -c 0 -i 54 -a 0 -x {2.1 1.1 -1 ------- null}
+ -t 0.0257166634873346 -s 2 -d 3 -p rtProtoDV -e 7 -c 0 -i 55 -a 0 -x {2.1 3.2 -1 ------- null}
- -t 0.0257166634873346 -s 2 -d 3 -p rtProtoDV -e 7 -c 0 -i 55 -a 0 -x {2.1 3.2 -1 ------- null}
h -t 0.0257166634873346 -s 2 -d 3 -p rtProtoDV -e 7 -c 0 -i 55 -a 0 -x {2.1 3.2 -1 ------- null}
r -t 0.0257166634873346 -s 3 -d 4 -p rtProtoDV -e 7 -c 0 -i 41 -a 0 -x {3.2 4.1 -1 ------- null}
r -t 0.0258260384873346 -s 5 -d 4 -p rtProtoDV -e 7 -c 0 -i 42 -a 0 -x {5.1 4.1 -1 ------- null}
r -t 0.0258260384873346 -s 5 -d 6 -p rtProtoDV -e 7 -c 0 -i 43 -a 0 -x {5.1 6.1 -1 ------- null}
+ -t 0.0258260384873346 -s 6 -d 0 -p rtProtoDV -e 7 -c 0 -i 56 -a 0 -x {6.1 0.2 -1 ------- null}
- -t 0.0258260384873346 -s 6 -d 0 -p rtProtoDV -e 7 -c 0 -i 56 -a 0 -x {6.1 0.2 -1 ------- null}
h -t 0.0258260384873346 -s 6 -d 0 -p rtProtoDV -e 7 -c 0 -i 56 -a 0 -x {6.1 0.2 -1 ------- null}
+ -t 0.0258260384873346 -s 6 -d 5 -p rtProtoDV -e 7 -c 0 -i 57 -a 0 -x {6.1 5.1 -1 ------- null}
- -t 0.0258260384873346 -s 6 -d 5 -p rtProtoDV -e 7 -c 0 -i 57 -a 0 -x {6.1 5.1 -1 ------- null}
h -t 0.0258260384873346 -s 6 -d 5 -p rtProtoDV -e 7 -c 0 -i 57 -a 0 -x {6.1 5.1 -1 ------- null}
r -t 0.0258260384873346 -s 0 -d 6 -p rtProtoDV -e 7 -c 0 -i 45 -a 0 -x {0.2 6.1 -1 ------- null}
r -t 0.0258260384873346 -s 2 -d 1 -p rtProtoDV -e 7 -c 0 -i 46 -a 0 -x {2.1 1.1 -1 ------- null}
r -t 0.0258260384873346 -s 2 -d 3 -p rtProtoDV -e 7 -c 0 -i 47 -a 0 -x {2.1 3.2 -1 ------- null}
r -t 0.0275398302185826 -s 6 -d 0 -p rtProtoDV -e 7 -c 0 -i 48 -a 0 -x {6.1 0.2 -1 ------- null}
r -t 0.0275398302185826 -s 6 -d 5 -p rtProtoDV -e 7 -c 0 -i 49 -a 0 -x {6.1 5.1 -1 ------- null}
r -t 0.0275398302185826 -s 1 -d 0 -p rtProtoDV -e 7 -c 0 -i 50 -a 0 -x {1.1 0.2 -1 ------- null}
r -t 0.0275398302185826 -s 1 -d 2 -p rtProtoDV -e 7 -c 0 -i 51 -a 0 -x {1.1 2.1 -1 ------- null}
r -t 0.0275398302185826 -s 5 -d 4 -p rtProtoDV -e 7 -c 0 -i 52 -a 0 -x {5.1 4.1 -1 ------- null}
r -t 0.0275398302185826 -s 5 -d 6 -p rtProtoDV -e 7 -c 0 -i 53 -a 0 -x {5.1 6.1 -1 ------- null}
- -t 0.0278125 -s 0 -d 1 -p rtProtoDV -e 7 -c 0 -i 44 -a 0 -x {0.2 1.1 -1 ------- null}
h -t 0.0278125 -s 0 -d 1 -p rtProtoDV -e 7 -c 0 -i 44 -a 0 -x {0.2 1.1 -1 ------- null}
+ -t 0.03 -s 0 -d 1 -p cbr -e 500 -c 0 -i 58 -a 0 -x {0.0 3.0 2 ------- null}
- -t 0.03 -s 0 -d 1 -p cbr -e 500 -c 0 -i 58 -a 0 -x {0.0 3.0 2 ------- null}
h -t 0.03 -s 0 -d 1 -p cbr -e 500 -c 0 -i 58 -a 0 -x {0.0 3.0 -1 ------- null}
r -t 0.0308260384873346 -s 2 -d 1 -p rtProtoDV -e 7 -c 0 -i 54 -a 0 -x {2.1 1.1 -1 ------- null}
r -t 0.0308260384873346 -s 2 -d 3 -p rtProtoDV -e 7 -c 0 -i 55 -a 0 -x {2.1 3.2 -1 ------- null}
r -t 0.0309354134873346 -s 6 -d 0 -p rtProtoDV -e 7 -c 0 -i 56 -a 0 -x {6.1 0.2 -1 ------- null}
r -t 0.0309354134873346 -s 6 -d 5 -p rtProtoDV -e 7 -c 0 -i 57 -a 0 -x {6.1 5.1 -1 ------- null}
r -t 0.0328125 -s 0 -d 1 -p cbr -e 500 -c 0 -i 37 -a 0 -x {0.0 3.0 1 ------- null}
+ -t 0.0328125 -s 1 -d 2 -p cbr -e 500 -c 0 -i 37 -a 0 -x {0.0 3.0 1 ------- null}
- -t 0.0328125 -s 1 -d 2 -p cbr -e 500 -c 0 -i 37 -a 0 -x {0.0 3.0 1 ------- null}
h -t 0.0328125 -s 1 -d 2 -p cbr -e 500 -c 0 -i 37 -a 0 -x {0.0 3.0 -1 ------- null}
r -t 0.032921875 -s 0 -d 1 -p rtProtoDV -e 7 -c 0 -i 44 -a 0 -x {0.2 1.1 -1 ------- null}
+ -t 0.04 -s 0 -d 1 -p cbr -e 500 -c 0 -i 59 -a 0 -x {0.0 3.0 3 ------- null}
- -t 0.04 -s 0 -d 1 -p cbr -e 500 -c 0 -i 59 -a 0 -x {0.0 3.0 3 ------- null}
h -t 0.04 -s 0 -d 1 -p cbr -e 500 -c 0 -i 59 -a 0 -x {0.0 3.0 -1 ------- null}
r -t 0.0428125 -s 0 -d 1 -p cbr -e 500 -c 0 -i 58 -a 0 -x {0.0 3.0 2 ------- null}
+ -t 0.0428125 -s 1 -d 2 -p cbr -e 500 -c 0 -i 58 -a 0 -x {0.0 3.0 2 ------- null}
- -t 0.0428125 -s 1 -d 2 -p cbr -e 500 -c 0 -i 58 -a 0 -x {0.0 3.0 2 ------- null}
h -t 0.0428125 -s 1 -d 2 -p cbr -e 500 -c 0 -i 58 -a 0 -x {0.0 3.0 -1 ------- null}
+ -t 0.04406133552271 -s 3 -d 2 -p rtProtoDV -e 7 -c 0 -i 60 -a 0 -x {3.2 2.1 -1 ------- null}
- -t 0.04406133552271 -s 3 -d 2 -p rtProtoDV -e 7 -c 0 -i 60 -a 0 -x {3.2 2.1 -1 ------- null}
h -t 0.04406133552271 -s 3 -d 2 -p rtProtoDV -e 7 -c 0 -i 60 -a 0 -x {3.2 2.1 -1 ------- null}
+ -t 0.04406133552271 -s 3 -d 4 -p rtProtoDV -e 7 -c 0 -i 61 -a 0 -x {3.2 4.1 -1 ------- null}
- -t 0.04406133552271 -s 3 -d 4 -p rtProtoDV -e 7 -c 0 -i 61 -a 0 -x {3.2 4.1 -1 ------- null}
h -t 0.04406133552271 -s 3 -d 4 -p rtProtoDV -e 7 -c 0 -i 61 -a 0 -x {3.2 4.1 -1 ------- null}
r -t 0.045625 -s 1 -d 2 -p cbr -e 500 -c 0 -i 37 -a 0 -x {0.0 3.0 1 ------- null}
+ -t 0.045625 -s 2 -d 3 -p cbr -e 500 -c 0 -i 37 -a 0 -x {0.0 3.0 1 ------- null}
- -t 0.045625 -s 2 -d 3 -p cbr -e 500 -c 0 -i 37 -a 0 -x {0.0 3.0 1 ------- null}
h -t 0.045625 -s 2 -d 3 -p cbr -e 500 -c 0 -i 37 -a 0 -x {0.0 3.0 -1 ------- null}
r -t 0.04917071052271 -s 3 -d 2 -p rtProtoDV -e 7 -c 0 -i 60 -a 0 -x {3.2 2.1 -1 ------- null}
r -t 0.04917071052271 -s 3 -d 4 -p rtProtoDV -e 7 -c 0 -i 61 -a 0 -x {3.2 4.1 -1 ------- null}
+ -t 0.05 -s 0 -d 1 -p cbr -e 500 -c 0 -i 62 -a 0 -x {0.0 3.0 4 ------- null}
- -t 0.05 -s 0 -d 1 -p cbr -e 500 -c 0 -i 62 -a 0 -x {0.0 3.0 4 ------- null}
h -t 0.05 -s 0 -d 1 -p cbr -e 500 -c 0 -i 62 -a 0 -x {0.0 3.0 -1 ------- null}
r -t 0.0528125 -s 0 -d 1 -p cbr -e 500 -c 0 -i 59 -a 0 -x {0.0 3.0 3 ------- null}
+ -t 0.0528125 -s 1 -d 2 -p cbr -e 500 -c 0 -i 59 -a 0 -x {0.0 3.0 3 ------- null}
- -t 0.0528125 -s 1 -d 2 -p cbr -e 500 -c 0 -i 59 -a 0 -x {0.0 3.0 3 ------- null}
h -t 0.0528125 -s 1 -d 2 -p cbr -e 500 -c 0 -i 59 -a 0 -x {0.0 3.0 -1 ------- null}
r -t 0.055625 -s 1 -d 2 -p cbr -e 500 -c 0 -i 58 -a 0 -x {0.0 3.0 2 ------- null}
+ -t 0.055625 -s 2 -d 3 -p cbr -e 500 -c 0 -i 58 -a 0 -x {0.0 3.0 2 ------- null}
- -t 0.055625 -s 2 -d 3 -p cbr -e 500 -c 0 -i 58 -a 0 -x {0.0 3.0 2 ------- null}
h -t 0.055625 -s 2 -d 3 -p cbr -e 500 -c 0 -i 58 -a 0 -x {0.0 3.0 -1 ------- null}
r -t 0.0584375 -s 2 -d 3 -p cbr -e 500 -c 0 -i 37 -a 0 -x {0.0 3.0 1 ------- null}
+ -t 0.06 -s 0 -d 1 -p cbr -e 500 -c 0 -i 63 -a 0 -x {0.0 3.0 5 ------- null}
- -t 0.06 -s 0 -d 1 -p cbr -e 500 -c 0 -i 63 -a 0 -x {0.0 3.0 5 ------- null}
h -t 0.06 -s 0 -d 1 -p cbr -e 500 -c 0 -i 63 -a 0 -x {0.0 3.0 -1 ------- null}
r -t 0.0628125 -s 0 -d 1 -p cbr -e 500 -c 0 -i 62 -a 0 -x {0.0 3.0 4 ------- null}
+ -t 0.0628125 -s 1 -d 2 -p cbr -e 500 -c 0 -i 62 -a 0 -x {0.0 3.0 4 ------- null}
- -t 0.0628125 -s 1 -d 2 -p cbr -e 500 -c 0 -i 62 -a 0 -x {0.0 3.0 4 ------- null}
h -t 0.0628125 -s 1 -d 2 -p cbr -e 500 -c 0 -i 62 -a 0 -x {0.0 3.0 -1 ------- null}
r -t 0.065625 -s 1 -d 2 -p cbr -e 500 -c 0 -i 59 -a 0 -x {0.0 3.0 3 ------- null}
+ -t 0.065625 -s 2 -d 3 -p cbr -e 500 -c 0 -i 59 -a 0 -x {0.0 3.0 3 ------- null}
- -t 0.065625 -s 2 -d 3 -p cbr -e 500 -c 0 -i 59 -a 0 -x {0.0 3.0 3 ------- null}
h -t 0.065625 -s 2 -d 3 -p cbr -e 500 -c 0 -i 59 -a 0 -x {0.0 3.0 -1 ------- null}
r -t 0.0684375 -s 2 -d 3 -p cbr -e 500 -c 0 -i 58 -a 0 -x {0.0 3.0 2 ------- null}
+ -t 0.07 -s 0 -d 1 -p cbr -e 500 -c 0 -i 64 -a 0 -x {0.0 3.0 6 ------- null}
- -t 0.07 -s 0 -d 1 -p cbr -e 500 -c 0 -i 64 -a 0 -x {0.0 3.0 6 ------- null}
h -t 0.07 -s 0 -d 1 -p cbr -e 500 -c 0 -i 64 -a 0 -x {0.0 3.0 -1 ------- null}
r -t 0.0728125 -s 0 -d 1 -p cbr -e 500 -c 0 -i 63 -a 0 -x {0.0 3.0 5 ------- null}
+ -t 0.0728125 -s 1 -d 2 -p cbr -e 500 -c 0 -i 63 -a 0 -x {0.0 3.0 5 ------- null}
- -t 0.0728125 -s 1 -d 2 -p cbr -e 500 -c 0 -i 63 -a 0 -x {0.0 3.0 5 ------- null}
h -t 0.0728125 -s 1 -d 2 -p cbr -e 500 -c 0 -i 63 -a 0 -x {0.0 3.0 -1 ------- null}
r -t 0.075625 -s 1 -d 2 -p cbr -e 500 -c 0 -i 62 -a 0 -x {0.0 3.0 4 ------- null}
+ -t 0.075625 -s 2 -d 3 -p cbr -e 500 -c 0 -i 62 -a 0 -x {0.0 3.0 4 ------- null}
- -t 0.075625 -s 2 -d 3 -p cbr -e 500 -c 0 -i 62 -a 0 -x {0.0 3.0 4 ------- null}
h -t 0.075625 -s 2 -d 3 -p cbr -e 500 -c 0 -i 62 -a 0 -x {0.0 3.0 -1 ------- null}
r -t 0.0784375 -s 2 -d 3 -p cbr -e 500 -c 0 -i 59 -a 0 -x {0.0 3.0 3 ------- null}
+ -t 0.08 -s 0 -d 1 -p cbr -e 500 -c 0 -i 65 -a 0 -x {0.0 3.0 7 ------- null}
- -t 0.08 -s 0 -d 1 -p cbr -e 500 -c 0 -i 65 -a 0 -x {0.0 3.0 7 ------- null}
h -t 0.08 -s 0 -d 1 -p cbr -e 500 -c 0 -i 65 -a 0 -x {0.0 3.0 -1 ------- null}
r -t 0.0828125 -s 0 -d 1 -p cbr -e 500 -c 0 -i 64 -a 0 -x {0.0 3.0 6 ------- null}
+ -t 0.0828125 -s 1 -d 2 -p cbr -e 500 -c 0 -i 64 -a 0 -x {0.0 3.0 6 ------- null}
- -t 0.0828125 -s 1 -d 2 -p cbr -e 500 -c 0 -i 64 -a 0 -x {0.0 3.0 6 ------- null}
h -t 0.0828125 -s 1 -d 2 -p cbr -e 500 -c 0 -i 64 -a 0 -x {0.0 3.0 -1 ------- null}
r -t 0.085625 -s 1 -d 2 -p cbr -e 500 -c 0 -i 63 -a 0 -x {0.0 3.0 5 ------- null}
+ -t 0.085625 -s 2 -d 3 -p cbr -e 500 -c 0 -i 63 -a 0 -x {0.0 3.0 5 ------- null}
- -t 0.085625 -s 2 -d 3 -p cbr -e 500 -c 0 -i 63 -a 0 -x {0.0 3.0 5 ------- null}
h -t 0.085625 -s 2 -d 3 -p cbr -e 500 -c 0 -i 63 -a 0 -x {0.0 3.0 -1 ------- null}
r -t 0.0884375 -s 2 -d 3 -p cbr -e 500 -c 0 -i 62 -a 0 -x {0.0 3.0 4 ------- null}
+ -t 0.09 -s 0 -d 1 -p cbr -e 500 -c 0 -i 66 -a 0 -x {0.0 3.0 8 ------- null}
- -t 0.09 -s 0 -d 1 -p cbr -e 500 -c 0 -i 66 -a 0 -x {0.0 3.0 8 ------- null}
h -t 0.09 -s 0 -d 1 -p cbr -e 500 -c 0 -i 66 -a 0 -x {0.0 3.0 -1 ------- null}
r -t 0.0928125 -s 0 -d 1 -p cbr -e 500 -c 0 -i 65 -a 0 -x {0.0 3.0 7 ------- null}
+ -t 0.0928125 -s 1 -d 2 -p cbr -e 500 -c 0 -i 65 -a 0 -x {0.0 3.0 7 ------- null}
- -t 0.0928125 -s 1 -d 2 -p cbr -e 500 -c 0 -i 65 -a 0 -x {0.0 3.0 7 ------- null}