s 1.000000000 _2_ AGT  --- 0 tcp 40 [0 0 0 0] ------- [2:0 11:0 32 0] [0 0] 0 0
r 1.000000000 _2_ RTR  --- 0 tcp 40 [0 0 0 0] ------- [2:0 11:0 32 0] [0 0] 0 0
s 1.000000000 _2_ RTR  --- 0 AODV 48 [0 0 0 0] ------- [2:255 -1:255 30 0] [0x2 1 1 [11 0] [2 4]] (REQUEST)
r 1.000988113 _11_ RTR  --- 0 AODV 48 [0 ffffffff 2 800] ------- [2:255 -1:255 30 0] [0x2 1 1 [11 0] [2 4]] (REQUEST)
s 1.000988113 _11_ RTR  --- 0 AODV 44 [0 0 0 0] ------- [11:255 2:255 30 2] [0x4 1 [11 4] 10.000000] (REPLY)
r 1.000988309 _14_ RTR  --- 0 AODV 48 [0 ffffffff 2 800] ------- [2:255 -1:255 30 0] [0x2 1 1 [11 0] [2 4]] (REQUEST)
r 1.000988355 _13_ RTR  --- 0 AODV 48 [0 ffffffff 2 800] ------- [2:255 -1:255 30 0] [0x2 1 1 [11 0] [2 4]] (REQUEST)
r 1.000988791 _0_ RTR  --- 0 AODV 48 [0 ffffffff 2 800] ------- [2:255 -1:255 30 0] [0x2 1 1 [11 0] [2 4]] (REQUEST)
s 1.001869536 _14_ RTR  --- 0 AODV 48 [0 ffffffff 2 800] ------- [14:255 -1:255 29 0] [0x2 2 1 [11 0] [2 4]] (REQUEST)
r 1.003057612 _13_ RTR  --- 0 AODV 48 [0 ffffffff e 800] ------- [14:255 -1:255 29 0] [0x2 2 1 [11 0] [2 4]] (REQUEST)
r 1.003057733 _11_ RTR  --- 0 AODV 48 [0 ffffffff e 800] ------- [14:255 -1:255 29 0] [0x2 2 1 [11 0] [2 4]] (REQUEST)
r 1.003057845 _2_ RTR  --- 0 AODV 48 [0 ffffffff e 800] ------- [14:255 -1:255 29 0] [0x2 2 1 [11 0] [2 4]] (REQUEST)
r 1.003058018 _0_ RTR  --- 0 AODV 48 [0 ffffffff e 800] ------- [14:255 -1:255 29 0] [0x2 2 1 [11 0] [2 4]] (REQUEST)
r 1.003058246 _10_ RTR  --- 0 AODV 48 [0 ffffffff e 800] ------- [14:255 -1:255 29 0] [0x2 2 1 [11 0] [2 4]] (REQUEST)
r 1.003058354 _3_ RTR  --- 0 AODV 48 [0 ffffffff e 800] ------- [14:255 -1:255 29 0] [0x2 2 1 [11 0] [2 4]] (REQUEST)
s 1.005400089 _13_ RTR  --- 0 AODV 48 [0 ffffffff 2 800] ------- [13:255 -1:255 29 0] [0x2 2 1 [11 0] [2 4]] (REQUEST)
s 1.006149036 _10_ RTR  --- 0 AODV 48 [0 ffffffff e 800] ------- [10:255 -1:255 28 0] [0x2 3 1 [11 0] [2 4]] (REQUEST)
r 1.006508525 _2_ RTR  --- 0 AODV 44 [13a 2 b 800] ------- [11:255 2:255 30 2] [0x4 1 [11 4] 10.000000] (REPLY)
s 1.006508525 _2_ RTR  --- 0 tcp 40 [0 0 0 0] ------- [2:0 11:0 30 11] [0 0] 0 0
r 1.007880956 _14_ RTR  --- 0 AODV 48 [0 ffffffff d 800] ------- [13:255 -1:255 29 0] [0x2 2 1 [11 0] [2 4]] (REQUEST)
r 1.007881130 _11_ RTR  --- 0 AODV 48 [0 ffffffff d 800] ------- [13:255 -1:255 29 0] [0x2 2 1 [11 0] [2 4]] (REQUEST)
r 1.007881235 _2_ RTR  --- 0 AODV 48 [0 ffffffff d 800] ------- [13:255 -1:255 29 0] [0x2 2 1 [11 0] [2 4]] (REQUEST)
r 1.007881321 _0_ RTR  --- 0 AODV 48 [0 ffffffff d 800] ------- [13:255 -1:255 29 0] [0x2 2 1 [11 0] [2 4]] (REQUEST)
r 1.007881533 _10_ RTR  --- 0 AODV 48 [0 ffffffff d 800] ------- [13:255 -1:255 29 0] [0x2 2 1 [11 0] [2 4]] (REQUEST)
s 1.008980345 _0_ RTR  --- 0 AODV 48 [0 ffffffff 2 800] ------- [0:255 -1:255 29 0] [0x2 2 1 [11 0] [2 4]] (REQUEST)
r 1.009139799 _0_ RTR  --- 0 AODV 48 [0 ffffffff a 800] ------- [10:255 -1:255 28 0] [0x2 3 1 [11 0] [2 4]] (REQUEST)
r 1.009139920 _9_ RTR  --- 0 AODV 48 [0 ffffffff a 800] ------- [10:255 -1:255 28 0] [0x2 3 1 [11 0] [2 4]] (REQUEST)
r 1.009140066 _8_ RTR  --- 0 AODV 48 [0 ffffffff a 800] ------- [10:255 -1:255 28 0] [0x2 3 1 [11 0] [2 4]] (REQUEST)
r 1.009140124 _5_ RTR  --- 0 AODV 48 [0 ffffffff a 800] ------- [10:255 -1:255 28 0] [0x2 3 1 [11 0] [2 4]] (REQUEST)
r 1.009140262 _7_ RTR  --- 0 AODV 48 [0 ffffffff a 800] ------- [10:255 -1:255 28 0] [0x2 3 1 [11 0] [2 4]] (REQUEST)
r 1.010378064 _10_ RTR  --- 0 AODV 48 [0 ffffffff 0 800] ------- [0:255 -1:255 29 0] [0x2 2 1 [11 0] [2 4]] (REQUEST)
r 1.010378239 _13_ RTR  --- 0 AODV 48 [0 ffffffff 0 800] ------- [0:255 -1:255 29 0] [0x2 2 1 [11 0] [2 4]] (REQUEST)
r 1.010378279 _9_ RTR  --- 0 AODV 48 [0 ffffffff 0 800] ------- [0:255 -1:255 29 0] [0x2 2 1 [11 0] [2 4]] (REQUEST)
r 1.010378281 _14_ RTR  --- 0 AODV 48 [0 ffffffff 0 800] ------- [0:255 -1:255 29 0] [0x2 2 1 [11 0] [2 4]] (REQUEST)
r 1.010378479 _11_ RTR  --- 0 AODV 48 [0 ffffffff 0 800] ------- [0:255 -1:255 29 0] [0x2 2 1 [11 0] [2 4]] (REQUEST)
r 1.010378500 _8_ RTR  --- 0 AODV 48 [0 ffffffff 0 800] ------- [0:255 -1:255 29 0] [0x2 2 1 [11 0] [2 4]] (REQUEST)
r 1.010378539 _1_ RTR  --- 0 AODV 48 [0 ffffffff 0 800] ------- [0:255 -1:255 29 0] [0x2 2 1 [11 0] [2 4]] (REQUEST)
r 1.010378541 _7_ RTR  --- 0 AODV 48 [0 ffffffff 0 800] ------- [0:255 -1:255 29 0] [0x2 2 1 [11 0] [2 4]] (REQUEST)
r 1.010378589 _2_ RTR  --- 0 AODV 48 [0 ffffffff 0 800] ------- [0:255 -1:255 29 0] [0x2 2 1 [11 0] [2 4]] (REQUEST)
s 1.011421589 _3_ RTR  --- 0 AODV 48 [0 ffffffff e 800] ------- [3:255 -1:255 28 0] [0x2 3 1 [11 0] [2 4]] (REQUEST)
s 1.011720945 _8_ RTR  --- 0 AODV 48 [0 ffffffff a 800] ------- [8:255 -1:255 27 0] [0x2 4 1 [11 0] [2 4]] (REQUEST)
r 1.011928929 _11_ AGT  --- 0 tcp 40 [13a b 2 800] ------- [2:0 11:0 30 11] [0 0] 1 0
s 1.011928929 _11_ AGT  --- 1 ack 40 [0 0 0 0] ------- [11:0 2:0 32 0] [0 0] 0 0
r 1.011928929 _11_ RTR  --- 1 ack 40 [0 0 0 0] ------- [11:0 2:0 32 0] [0 0] 0 0
s 1.011928929 _11_ RTR  --- 1 ack 40 [0 0 0 0] ------- [11:0 2:0 30 2] [0 0] 0 0
s 1.012627331 _9_ RTR  --- 0 AODV 48 [0 ffffffff a 800] ------- [9:255 -1:255 27 0] [0x2 4 1 [11 0] [2 4]] (REQUEST)
s 1.013226980 _5_ RTR  --- 0 AODV 48 [0 ffffffff a 800] ------- [5:255 -1:255 27 0] [0x2 4 1 [11 0] [2 4]] (REQUEST)
r 1.013615582 _8_ RTR  --- 0 AODV 48 [0 ffffffff 9 800] ------- [9:255 -1:255 27 0] [0x2 4 1 [11 0] [2 4]] (REQUEST)
r 1.013615685 _7_ RTR  --- 0 AODV 48 [0 ffffffff 9 800] ------- [9:255 -1:255 27 0] [0x2 4 1 [11 0] [2 4]] (REQUEST)
r 1.013615718 _10_ RTR  --- 0 AODV 48 [0 ffffffff 9 800] ------- [9:255 -1:255 27 0] [0x2 4 1 [11 0] [2 4]] (REQUEST)
r 1.013615812 _0_ RTR  --- 0 AODV 48 [0 ffffffff 9 800] ------- [9:255 -1:255 27 0] [0x2 4 1 [11 0] [2 4]] (REQUEST)
r 1.013615891 _12_ RTR  --- 0 AODV 48 [0 ffffffff 9 800] ------- [9:255 -1:255 27 0] [0x2 4 1 [11 0] [2 4]] (REQUEST)
r 1.013615977 _5_ RTR  --- 0 AODV 48 [0 ffffffff 9 800] ------- [9:255 -1:255 27 0] [0x2 4 1 [11 0] [2 4]] (REQUEST)
r 1.013615988 _1_ RTR  --- 0 AODV 48 [0 ffffffff 9 800] ------- [9:255 -1:255 27 0] [0x2 4 1 [11 0] [2 4]] (REQUEST)
s 1.014326750 _7_ RTR  --- 0 AODV 48 [0 ffffffff a 800] ------- [7:255 -1:255 27 0] [0x2 4 1 [11 0] [2 4]] (REQUEST)
r 1.014813833 _9_ RTR  --- 0 AODV 48 [0 ffffffff 8 800] ------- [8:255 -1:255 27 0] [0x2 4 1 [11 0] [2 4]] (REQUEST)
r 1.014814018 _7_ RTR  --- 0 AODV 48 [0 ffffffff 8 800] ------- [8:255 -1:255 27 0] [0x2 4 1 [11 0] [2 4]] (REQUEST)
r 1.014814055 _12_ RTR  --- 0 AODV 48 [0 ffffffff 8 800] ------- [8:255 -1:255 27 0] [0x2 4 1 [11 0] [2 4]] (REQUEST)
r 1.016157245 _12_ RTR  --- 0 AODV 48 [0 ffffffff 7 800] ------- [7:255 -1:255 27 0] [0x2 4 1 [11 0] [2 4]] (REQUEST)
r 1.016157272 _9_ RTR  --- 0 AODV 48 [0 ffffffff 7 800] ------- [7:255 -1:255 27 0] [0x2 4 1 [11 0] [2 4]] (REQUEST)
r 1.016157353 _8_ RTR  --- 0 AODV 48 [0 ffffffff 7 800] ------- [7:255 -1:255 27 0] [0x2 4 1 [11 0] [2 4]] (REQUEST)
r 1.016157397 _1_ RTR  --- 0 AODV 48 [0 ffffffff 7 800] ------- [7:255 -1:255 27 0] [0x2 4 1 [11 0] [2 4]] (REQUEST)
s 1.017301607 _1_ RTR  --- 0 AODV 48 [0 ffffffff 0 800] ------- [1:255 -1:255 28 0] [0x2 3 1 [11 0] [2 4]] (REQUEST)
r 1.017820043 _4_ RTR  --- 0 AODV 48 [0 ffffffff 3 800] ------- [3:255 -1:255 28 0] [0x2 3 1 [11 0] [2 4]] (REQUEST)
r 1.017820356 _6_ RTR  --- 0 AODV 48 [0 ffffffff 3 800] ------- [3:255 -1:255 28 0] [0x2 3 1 [11 0] [2 4]] (REQUEST)
r 1.017820600 _1_ RTR  --- 0 AODV 48 [0 ffffffff 3 800] ------- [3:255 -1:255 28 0] [0x2 3 1 [11 0] [2 4]] (REQUEST)
r 1.017820805 _14_ RTR  --- 0 AODV 48 [0 ffffffff 3 800] ------- [3:255 -1:255 28 0] [0x2 3 1 [11 0] [2 4]] (REQUEST)
s 1.018404383 _6_ RTR  --- 0 AODV 48 [0 ffffffff 3 800] ------- [6:255 -1:255 27 0] [0x2 4 1 [11 0] [2 4]] (REQUEST)
r 1.018938866 _6_ RTR  --- 0 AODV 48 [0 ffffffff 1 800] ------- [1:255 -1:255 28 0] [0x2 3 1 [11 0] [2 4]] (REQUEST)
r 1.018939080 _7_ RTR  --- 0 AODV 48 [0 ffffffff 1 800] ------- [1:255 -1:255 28 0] [0x2 3 1 [11 0] [2 4]] (REQUEST)
r 1.018939213 _3_ RTR  --- 0 AODV 48 [0 ffffffff 1 800] ------- [1:255 -1:255 28 0] [0x2 3 1 [11 0] [2 4]] (REQUEST)
r 1.018939240 _4_ RTR  --- 0 AODV 48 [0 ffffffff 1 800] ------- [1:255 -1:255 28 0] [0x2 3 1 [11 0] [2 4]] (REQUEST)
r 1.018939258 _9_ RTR  --- 0 AODV 48 [0 ffffffff 1 800] ------- [1:255 -1:255 28 0] [0x2 3 1 [11 0] [2 4]] (REQUEST)
r 1.018939340 _0_ RTR  --- 0 AODV 48 [0 ffffffff 1 800] ------- [1:255 -1:255 28 0] [0x2 3 1 [11 0] [2 4]] (REQUEST)
r 1.018939376 _12_ RTR  --- 0 AODV 48 [0 ffffffff 1 800] ------- [1:255 -1:255 28 0] [0x2 3 1 [11 0] [2 4]] (REQUEST)
s 1.018940356 _4_ RTR  --- 0 AODV 48 [0 ffffffff 3 800] ------- [4:255 -1:255 27 0] [0x2 4 1 [11 0] [2 4]] (REQUEST)
r 1.019957133 _1_ RTR  --- 0 AODV 48 [0 ffffffff 6 800] ------- [6:255 -1:255 27 0] [0x2 4 1 [11 0] [2 4]] (REQUEST)
r 1.019957235 _3_ RTR  --- 0 AODV 48 [0 ffffffff 6 800] ------- [6:255 -1:255 27 0] [0x2 4 1 [11 0] [2 4]] (REQUEST)
r 1.019957253 _4_ RTR  --- 0 AODV 48 [0 ffffffff 6 800] ------- [6:255 -1:255 27 0] [0x2 4 1 [11 0] [2 4]] (REQUEST)
r 1.019957611 _7_ RTR  --- 0 AODV 48 [0 ffffffff 6 800] ------- [6:255 -1:255 27 0] [0x2 4 1 [11 0] [2 4]] (REQUEST)
r 1.021295308 _3_ RTR  --- 0 AODV 48 [0 ffffffff 4 800] ------- [4:255 -1:255 27 0] [0x2 4 1 [11 0] [2 4]] (REQUEST)
r 1.021295639 _6_ RTR  --- 0 AODV 48 [0 ffffffff 4 800] ------- [4:255 -1:255 27 0] [0x2 4 1 [11 0] [2 4]] (REQUEST)
r 1.021295893 _1_ RTR  --- 0 AODV 48 [0 ffffffff 4 800] ------- [4:255 -1:255 27 0] [0x2 4 1 [11 0] [2 4]] (REQUEST)
s 1.022665346 _12_ RTR  --- 0 AODV 48 [0 ffffffff 9 800] ------- [12:255 -1:255 26 0] [0x2 5 1 [11 0] [2 4]] (REQUEST)
r 1.023790496 _2_ AGT  --- 1 ack 40 [13a 2 b 800] ------- [11:0 2:0 30 2] [0 0] 1 0
s 1.023790496 _2_ AGT  --- 2 tcp 1040 [0 0 0 0] ------- [2:0 11:0 32 0] [1 0] 0 0
r 1.023790496 _2_ RTR  --- 2 tcp 1040 [0 0 0 0] ------- [2:0 11:0 32 0] [1 0] 0 0
s 1.023790496 _2_ AGT  --- 3 tcp 1040 [0 0 0 0] ------- [2:0 11:0 32 0] [2 0] 0 0
r 1.023790496 _2_ RTR  --- 3 tcp 1040 [0 0 0 0] ------- [2:0 11:0 32 0] [2 0] 0 0
s 1.023790496 _2_ RTR  --- 2 tcp 1040 [0 0 0 0] ------- [2:0 11:0 30 11] [1 0] 0 0
s 1.023790496 _2_ RTR  --- 3 tcp 1040 [0 0 0 0] ------- [2:0 11:0 30 11] [2 0] 0 0
r 1.034094836 _11_ AGT  --- 2 tcp 1040 [13a b 2 800] ------- [2:0 11:0 30 11] [1 0] 1 0
s 1.034094836 _11_ AGT  --- 4 ack 40 [0 0 0 0] ------- [11:0 2:0 32 0] [1 0] 0 0
r 1.034094836 _11_ RTR  --- 4 ack 40 [0 0 0 0] ------- [11:0 2:0 32 0] [1 0] 0 0
s 1.034094836 _11_ RTR  --- 4 ack 40 [0 0 0 0] ------- [11:0 2:0 30 2] [1 0] 0 0
r 1.036139176 _2_ AGT  --- 4 ack 40 [13a 2 b 800] ------- [11:0 2:0 30 2] [1 0] 1 0
s 1.036139176 _2_ AGT  --- 5 tcp 1040 [0 0 0 0] ------- [2:0 11:0 32 0] [3 0] 0 0
r 1.036139176 _2_ RTR  --- 5 tcp 1040 [0 0 0 0] ------- [2:0 11:0 32 0] [3 0] 0 0
s 1.036139176 _2_ AGT  --- 6 tcp 1040 [0 0 0 0] ------- [2:0 11:0 32 0] [4 0] 0 0
r 1.036139176 _2_ RTR  --- 6 tcp 1040 [0 0 0 0] ------- [2:0 11:0 32 0] [4 0] 0 0
s 1.036139176 _2_ RTR  --- 5 tcp 1040 [0 0 0 0] ------- [2:0 11:0 30 11] [3 0] 0 0
s 1.036139176 _2_ RTR  --- 6 tcp 1040 [0 0 0 0] ------- [2:0 11:0 30 11] [4 0] 0 0
r 1.046083516 _11_ AGT  --- 3 tcp 1040 [13a b 2 800] ------- [2:0 11:0 30 11] [2 0] 1 0
s 1.046083516 _11_ AGT  --- 7 ack 40 [0 0 0 0] ------- [11:0 2:0 32 0] [2 0] 0 0
r 1.046083516 _11_ RTR  --- 7 ack 40 [0 0 0 0] ------- [11:0 2:0 32 0] [2 0] 0 0
s 1.046083516 _11_ RTR  --- 7 ack 40 [0 0 0 0] ------- [11:0 2:0 30 2] [2 0] 0 0
r 1.047967856 _2_ AGT  --- 7 ack 40 [13a 2 b 800] ------- [11:0 2:0 30 2] [2 0] 1 0
s 1.047967856 _2_ AGT  --- 8 tcp 1040 [0 0 0 0] ------- [2:0 11:0 32 0] [5 0] 0 0
r 1.047967856 _2_ RTR  --- 8 tcp 1040 [0 0 0 0] ------- [2:0 11:0 32 0] [5 0] 0 0
s 1.047967856 _2_ AGT  --- 9 tcp 1040 [0 0 0 0] ------- [2:0 11:0 32 0] [6 0] 0 0
r 1.047967856 _2_ RTR  --- 9 tcp 1040 [0 0 0 0] ------- [2:0 11:0 32 0] [6 0] 0 0
s 1.047967856 _2_ RTR  --- 8 tcp 1040 [0 0 0 0] ------- [2:0 11:0 30 11] [5 0] 0 0
s 1.047967856 _2_ RTR  --- 9 tcp 1040 [0 0 0 0] ------- [2:0 11:0 30 11] [6 0] 0 0
r 1.057972196 _11_ AGT  --- 5 tcp 1040 [13a b 2 800] ------- [2:0 11:0 30 11] [3 0] 1 0
s 1.057972196 _11_ AGT  --- 10 ack 40 [0 0 0 0] ------- [11:0 2:0 32 0] [3 0] 0 0
r 1.057972196 _11_ RTR  --- 10 ack 40 [0 0 0 0] ------- [11:0 2:0 32 0] [3 0] 0 0
s 1.057972196 _11_ RTR  --- 10 ack 40 [0 0 0 0] ------- [11:0 2:0 30 2] [3 0] 0 0
r 1.067796649 _11_ AGT  --- 6 tcp 1040 [13a b 2 800] ------- [2:0 11:0 30 11] [4 0] 1 0
s 1.067796649 _11_ AGT  --- 11 ack 40 [0 0 0 0] ------- [11:0 2:0 32 0] [4 0] 0 0
r 1.067796649 _11_ RTR  --- 11 ack 40 [0 0 0 0] ------- [11:0 2:0 32 0] [4 0] 0 0
s 1.067796649 _11_ RTR  --- 11 ack 40 [0 0 0 0] ------- [11:0 2:0 30 2] [4 0] 0 0
r 1.077861103 _11_ AGT  --- 8 tcp 1040 [13a b 2 800] ------- [2:0 11:0 30 11] [5 0] 1 0
s 1.077861103 _11_ AGT  --- 12 ack 40 [0 0 0 0] ------- [11:0 2:0 32 0] [5 0] 0 0
r 1.077861103 _11_ RTR  --- 12 ack 40 [0 0 0 0] ------- [11:0 2:0 32 0] [5 0] 0 0
s 1.077861103 _11_ RTR  --- 12 ack 40 [0 0 0 0] ------- [11:0 2:0 30 2] [5 0] 0 0
r 1.079745443 _2_ AGT  --- 10 ack 40 [13a 2 b 800] ------- [11:0 2:0 30 2] [3 0] 1 0
s 1.079745443 _2_ AGT  --- 13 tcp 1040 [0 0 0 0] ------- [2:0 11:0 32 0] [7 0] 0 0
r 1.079745443 _2_ RTR  --- 13 tcp 1040 [0 0 0 0] ------- [2:0 11:0 32 0] [7 0] 0 0
s 1.079745443 _2_ AGT  --- 14 tcp 1040 [0 0 0 0] ------- [2:0 11:0 32 0] [8 0] 0 0
r 1.079745443 _2_ RTR  --- 14 tcp 1040 [0 0 0 0] ------- [2:0 11:0 32 0] [8 0] 0 0
s 1.079745443 _2_ RTR  --- 13 tcp 1040 [0 0 0 0] ------- [2:0 11:0 30 11] [7 0] 0 0
s 1.079745443 _2_ RTR  --- 14 tcp 1040 [0 0 0 0] ------- [2:0 11:0 30 11] [8 0] 0 0
r 1.089829783 _11_ AGT  --- 9 tcp 1040 [13a b 2 800] ------- [2:0 11:0 30 11] [6 0] 1 0
s 1.089829783 _11_ AGT  --- 15 ack 40 [0 0 0 0] ------- [11:0 2:0 32 0] [6 0] 0 0
r 1.089829783 _11_ RTR  --- 15 ack 40 [0 0 0 0] ------- [11:0 2:0 32 0] [6 0] 0 0
s 1.089829783 _11_ RTR  --- 15 ack 40 [0 0 0 0] ------- [11:0 2:0 30 2] [6 0] 0 0
r 1.099674236 _11_ AGT  --- 13 tcp 1040 [13a b 2 800] ------- [2:0 11:0 30 11] [7 0] 1 0
s 1.099674236 _11_ AGT  --- 16 ack 40 [0 0 0 0] ------- [11:0 2:0 32 0] [7 0] 0 0
r 1.099674236 _11_ RTR  --- 16 ack 40 [0 0 0 0] ------- [11:0 2:0 32 0] [7 0] 0 0
s 1.099674236 _11_ RTR  --- 16 ack 40 [0 0 0 0] ------- [11:0 2:0 30 2] [7 0] 0 0
r 1.101518576 _2_ AGT  --- 11 ack 40 [13a 2 b 800] ------- [11:0 2:0 30 2] [4 0] 1 0
s 1.101518576 _2_ AGT  --- 17 tcp 1040 [0 0 0 0] ------- [2:0 11:0 32 0] [9 0] 0 0
r 1.101518576 _2_ RTR  --- 17 tcp 1040 [0 0 0 0] ------- [2:0 11:0 32 0] [9 0] 0 0
s 1.101518576 _2_ AGT  --- 18 tcp 1040 [0 0 0 0] ------- [2:0 11:0 32 0] [10 0] 0 0
r 1.101518576 _2_ RTR  --- 18 tcp 1040 [0 0 0 0] ------- [2:0 11:0 32 0] [10 0] 0 0
s 1.101518576 _2_ RTR  --- 17 tcp 1040 [0 0 0 0] ------- [2:0 11:0 30 11] [9 0] 0 0
s 1.101518576 _2_ RTR  --- 18 tcp 1040 [0 0 0 0] ------- [2:0 11:0 30 11] [10 0] 0 0
r 1.103583029 _2_ AGT  --- 12 ack 40 [13a 2 b 800] ------- [11:0 2:0 30 2] [5 0] 1 0
s 1.103583029 _2_ AGT  --- 19 tcp 1040 [0 0 0 0] ------- [2:0 11:0 32 0] [11 0] 0 0
r 1.103583029 _2_ RTR  --- 19 tcp 1040 [0 0 0 0] ------- [2:0 11:0 32 0] [11 0] 0 0
s 1.103583029 _2_ AGT  --- 20 tcp 1040 [0 0 0 0] ------- [2:0 11:0 32 0] [12 0] 0 0
r 1.103583029 _2_ RTR  --- 20 tcp 1040 [0 0 0 0] ------- [2:0 11:0 32 0] [12 0] 0 0
s 1.103583029 _2_ RTR  --- 19 tcp 1040 [0 0 0 0] ------- [2:0 11:0 30 11] [11 0] 0 0
s 1.103583029 _2_ RTR  --- 20 tcp 1040 [0 0 0 0] ------- [2:0 11:0 30 11] [12 0] 0 0
r 1.105527483 _2_ AGT  --- 15 ack 40 [13a 2 b 800] ------- [11:0 2:0 30 2] [6 0] 1 0
s 1.105527483 _2_ AGT  --- 21 tcp 1040 [0 0 0 0] ------- [2:0 11:0 32 0] [13 0] 0 0
r 1.105527483 _2_ RTR  --- 21 tcp 1040 [0 0 0 0] ------- [2:0 11:0 32 0] [13 0] 0 0
s 1.105527483 _2_ AGT  --- 22 tcp 1040 [0 0 0 0] ------- [2:0 11:0 32 0] [14 0] 0 0
r 1.105527483 _2_ RTR  --- 22 tcp 1040 [0 0 0 0] ------- [2:0 11:0 32 0] [14 0] 0 0
s 1.105527483 _2_ RTR  --- 21 tcp 1040 [0 0 0 0] ------- [2:0 11:0 30 11] [13 0] 0 0
s 1.105527483 _2_ RTR  --- 22 tcp 1040 [0 0 0 0] ------- [2:0 11:0 30 11] [14 0] 0 0
r 1.115471823 _11_ AGT  --- 14 tcp 1040 [13a b 2 800] ------- [2:0 11:0 30 11] [8 0] 1 0
s 1.115471823 _11_ AGT  --- 23 ack 40 [0 0 0 0] ------- [11:0 2:0 32 0] [8 0] 0 0
r 1.115471823 _11_ RTR  --- 23 ack 40 [0 0 0 0] ------- [11:0 2:0 32 0] [8 0] 0 0
s 1.115471823 _11_ RTR  --- 23 ack 40 [0 0 0 0] ------- [11:0 2:0 30 2] [8 0] 0 0
r 1.125336276 _11_ AGT  --- 17 tcp 1040 [13a b 2 800] ------- [2:0 11:0 30 11] [9 0] 1 0
s 1.125336276 _11_ AGT  --- 24 ack 40 [0 0 0 0] ------- [11:0 2:0 32 0] [9 0] 0 0
r 1.125336276 _11_ RTR  --- 24 ack 40 [0 0 0 0] ------- [11:0 2:0 32 0] [9 0] 0 0
s 1.125336276 _11_ RTR  --- 24 ack 40 [0 0 0 0] ------- [11:0 2:0 30 2] [9 0] 0 0
r 1.127320616 _2_ AGT  --- 16 ack 40 [13a 2 b 800] ------- [11:0 2:0 30 2] [7 0] 1 0
s 1.127320616 _2_ AGT  --- 25 tcp 1040 [0 0 0 0] ------- [2:0 11:0 32 0] [15 0] 0 0
r 1.127320616 _2_ RTR  --- 25 tcp 1040 [0 0 0 0] ------- [2:0 11:0 32 0] [15 0] 0 0
s 1.127320616 _2_ AGT  --- 26 tcp 1040 [0 0 0 0] ------- [2:0 11:0 32 0] [16 0] 0 0
r 1.127320616 _2_ RTR  --- 26 tcp 1040 [0 0 0 0] ------- [2:0 11:0 32 0] [16 0] 0 0
s 1.127320616 _2_ RTR  --- 25 tcp 1040 [0 0 0 0] ------- [2:0 11:0 30 11] [15 0] 0 0
s 1.127320616 _2_ RTR  --- 26 tcp 1040 [0 0 0 0] ------- [2:0 11:0 30 11] [16 0] 0 0
r 1.129265069 _2_ AGT  --- 23 ack 40 [13a 2 b 800] ------- [11:0 2:0 30 2] [8 0] 1 0
s 1.129265069 _2_ AGT  --- 27 tcp 1040 [0 0 0 0] ------- [2:0 11:0 32 0] [17 0] 0 0
r 1.129265069 _2_ RTR  --- 27 tcp 1040 [0 0 0 0] ------- [2:0 11:0 32 0] [17 0] 0 0
s 1.129265069 _2_ AGT  --- 28 tcp 1040 [0 0 0 0] ------- [2:0 11:0 32 0] [18 0] 0 0
r 1.129265069 _2_ RTR  --- 28 tcp 1040 [0 0 0 0] ------- [2:0 11:0 32 0] [18 0] 0 0
s 1.129265069 _2_ RTR  --- 27 tcp 1040 [0 0 0 0] ------- [2:0 11:0 30 11] [17 0] 0 0
s 1.129265069 _2_ RTR  --- 28 tcp 1040 [0 0 0 0] ------- [2:0 11:0 30 11] [18 0] 0 0
r 1.140175636 _11_ AGT  --- 18 tcp 1040 [13a b 2 800] ------- [2:0 11:0 30 11] [10 0] 1 0
s 1.140175636 _11_ AGT  --- 29 ack 40 [0 0 0 0] ------- [11:0 2:0 32 0] [10 0] 0 0
r 1.140175636 _11_ RTR  --- 29 ack 40 [0 0 0 0] ------- [11:0 2:0 32 0] [10 0] 0 0
s 1.140175636 _11_ RTR  --- 29 ack 40 [0 0 0 0] ------- [11:0 2:0 30 2] [10 0] 0 0
r 1.150260089 _11_ AGT  --- 19 tcp 1040 [13a b 2 800] ------- [2:0 11:0 30 11] [11 0] 1 0
s 1.150260089 _11_ AGT  --- 30 ack 40 [0 0 0 0] ------- [11:0 2:0 32 0] [11 0] 0 0
r 1.150260089 _11_ RTR  --- 30 ack 40 [0 0 0 0] ------- [11:0 2:0 32 0] [11 0] 0 0
s 1.150260089 _11_ RTR  --- 30 ack 40 [0 0 0 0] ------- [11:0 2:0 30 2] [11 0] 0 0
r 1.160284543 _11_ AGT  --- 20 tcp 1040 [13a b 2 800] ------- [2:0 11:0 30 11] [12 0] 1 0
s 1.160284543 _11_ AGT  --- 31 ack 40 [0 0 0 0] ------- [11:0 2:0 32 0] [12 0] 0 0
r 1.160284543 _11_ RTR  --- 31 ack 40 [0 0 0 0] ------- [11:0 2:0 32 0] [12 0] 0 0
s 1.160284543 _11_ RTR  --- 31 ack 40 [0 0 0 0] ------- [11:0 2:0 30 2] [12 0] 0 0
r 1.170168996 _11_ AGT  --- 21 tcp 1040 [13a b 2 800] ------- [2:0 11:0 30 11] [13 0] 1 0
s 1.170168996 _11_ AGT  --- 32 ack 40 [0 0 0 0] ------- [11:0 2:0 32 0] [13 0] 0 0
r 1.170168996 _11_ RTR  --- 32 ack 40 [0 0 0 0] ------- [11:0 2:0 32 0] [13 0] 0 0
s 1.170168996 _11_ RTR  --- 32 ack 40 [0 0 0 0] ------- [11:0 2:0 30 2] [13 0] 0 0
r 1.172073336 _2_ AGT  --- 24 ack 40 [13a 2 b 800] ------- [11:0 2:0 30 2] [9 0] 1 0
s 1.172073336 _2_ AGT  --- 33 tcp 1040 [0 0 0 0] ------- [2:0 11:0 32 0] [19 0] 0 0
r 1.172073336 _2_ RTR  --- 33 tcp 1040 [0 0 0 0] ------- [2:0 11:0 32 0] [19 0] 0 0
s 1.172073336 _2_ AGT  --- 34 tcp 1040 [0 0 0 0] ------- [2:0 11:0 32 0] [20 0] 0 0
r 1.172073336 _2_ RTR  --- 34 tcp 1040 [0 0 0 0] ------- [2:0 11:0 32 0] [20 0] 0 0
s 1.172073336 _2_ RTR  --- 33 tcp 1040 [0 0 0 0] ------- [2:0 11:0 30 11] [19 0] 0 0
s 1.172073336 _2_ RTR  --- 34 tcp 1040 [0 0 0 0] ------- [2:0 11:0 30 11] [20 0] 0 0
r 1.182177676 _11_ AGT  --- 22 tcp 1040 [13a b 2 800] ------- [2:0 11:0 30 11] [14 0] 1 0
s 1.182177676 _11_ AGT  --- 35 ack 40 [0 0 0 0] ------- [11:0 2:0 32 0] [14 0] 0 0
r 1.182177676 _11_ RTR  --- 35 ack 40 [0 0 0 0] ------- [11:0 2:0 32 0] [14 0] 0 0
s 1.182177676 _11_ RTR  --- 35 ack 40 [0 0 0 0] ------- [11:0 2:0 30 2] [14 0] 0 0
r 1.192122129 _11_ AGT  --- 25 tcp 1040 [13a b 2 800] ------- [2:0 11:0 30 11] [15 0] 1 0
s 1.192122129 _11_ AGT  --- 36 ack 40 [0 0 0 0] ------- [11:0 2:0 32 0] [15 0] 0 0
r 1.192122129 _11_ RTR  --- 36 ack 40 [0 0 0 0] ------- [11:0 2:0 32 0] [15 0] 0 0
s 1.192122129 _11_ RTR  --- 36 ack 40 [0 0 0 0] ------- [11:0 2:0 30 2] [15 0] 0 0
r 1.202006583 _11_ AGT  --- 26 tcp 1040 [13a b 2 800] ------- [2:0 11:0 30 11] [16 0] 1 0
s 1.202006583 _11_ AGT  --- 37 ack 40 [0 0 0 0] ------- [11:0 2:0 32 0] [16 0] 0 0
r 1.202006583 _11_ RTR  --- 37 ack 40 [0 0 0 0] ------- [11:0 2:0 32 0] [16 0] 0 0
s 1.202006583 _11_ RTR  --- 37 ack 40 [0 0 0 0] ------- [11:0 2:0 30 2] [16 0] 0 0
r 1.203990923 _2_ AGT  --- 29 ack 40 [13a 2 b 800] ------- [11:0 2:0 30 2] [10 0] 1 0
s 1.203990923 _2_ AGT  --- 38 tcp 1040 [0 0 0 0] ------- [2:0 11:0 32 0] [21 0] 0 0
r 1.203990923 _2_ RTR  --- 38 tcp 1040 [0 0 0 0] ------- [2:0 11:0 32 0] [21 0] 0 0
s 1.203990923 _2_ AGT  --- 39 tcp 1040 [0 0 0 0] ------- [2:0 11:0 32 0] [22 0] 0 0
r 1.203990923 _2_ RTR  --- 39 tcp 1040 [0 0 0 0] ------- [2:0 11:0 32 0] [22 0] 0 0
s 1.203990923 _2_ RTR  --- 38 tcp 1040 [0 0 0 0] ------- [2:0 11:0 30 11] [21 0] 0 0
s 1.203990923 _2_ RTR  --- 39 tcp 1040 [0 0 0 0] ------- [2:0 11:0 30 11] [22 0] 0 0
r 1.205935376 _2_ AGT  --- 30 ack 40 [13a 2 b 800] ------- [11:0 2:0 30 2] [11 0] 1 0
s 1.205935376 _2_ AGT  --- 40 tcp 1040 [0 0 0 0] ------- [2:0 11:0 32 0] [23 0] 0 0
r 1.205935376 _2_ RTR  --- 40 tcp 1040 [0 0 0 0] ------- [2:0 11:0 32 0] [23 0] 0 0
s 1.205935376 _2_ AGT  --- 41 tcp 1040 [0 0 0 0] ------- [2:0 11:0 32 0] [24 0] 0 0
r 1.205935376 _2_ RTR  --- 41 tcp 1040 [0 0 0 0] ------- [2:0 11:0 32 0] [24 0] 0 0
s 1.205935376 _2_ RTR  --- 40 tcp 1040 [0 0 0 0] ------- [2:0 11:0 30 11] [23 0] 0 0
s 1.205935376 _2_ RTR  --- 41 tcp 1040 [0 0 0 0] ------- [2:0 11:0 30 11] [24 0] 0 0
r 1.216079716 _11_ AGT  --- 27 tcp 1040 [13a b 2 800] ------- [2:0 11:0 30 11] [17 0] 1 0
s 1.216079716 _11_ AGT  --- 42 ack 40 [0 0 0 0] ------- [11:0 2:0 32 0] [17 0] 0 0
r 1.216079716 _11_ RTR  --- 42 ack 40 [0 0 0 0] ------- [11:0 2:0 32 0] [17 0] 0 0
s 1.216079716 _11_ RTR  --- 42 ack 40 [0 0 0 0] ------- [11:0 2:0 30 2] [17 0] 0 0
r 1.218204056 _2_ AGT  --- 31 ack 40 [13a 2 b 800] ------- [11:0 2:0 30 2] [12 0] 1 0
s 1.218204056 _2_ AGT  --- 43 tcp 1040 [0 0 0 0] ------- [2:0 11:0 32 0] [25 0] 0 0
r 1.218204056 _2_ RTR  --- 43 tcp 1040 [0 0 0 0] ------- [2:0 11:0 32 0] [25 0] 0 0
s 1.218204056 _2_ AGT  --- 44 tcp 1040 [0 0 0 0] ------- [2:0 11:0 32 0] [26 0] 0 0
r 1.218204056 _2_ RTR  --- 44 tcp 1040 [0 0 0 0] ------- [2:0 11:0 32 0] [26 0] 0 0
s 1.218204056 _2_ RTR  --- 43 tcp 1040 [0 0 0 0] ------- [2:0 11:0 30 11] [25 0] 0 0
s 1.218204056 _2_ RTR  --- 44 tcp 1040 [0 0 0 0] ------- [2:0 11:0 30 11] [26 0] 0 0
r 1.228188396 _11_ AGT  --- 28 tcp 1040 [13a b 2 800] ------- [2:0 11:0 30 11] [18 0] 1 0
s 1.228188396 _11_ AGT  --- 45 ack 40 [0 0 0 0] ------- [11:0 2:0 32 0] [18 0] 0 0
r 1.228188396 _11_ RTR  --- 45 ack 40 [0 0 0 0] ------- [11:0 2:0 32 0] [18 0] 0 0
s 1.228188396 _11_ RTR  --- 45 ack 40 [0 0 0 0] ------- [11:0 2:0 30 2] [18 0] 0 0
r 1.238312849 _11_ AGT  --- 33 tcp 1040 [13a b 2 800] ------- [2:0 11:0 30 11] [19 0] 1 0
s 1.238312849 _11_ AGT  --- 46 ack 40 [0 0 0 0] ------- [11:0 2:0 32 0] [19 0] 0 0
r 1.238312849 _11_ RTR  --- 46 ack 40 [0 0 0 0] ------- [11:0 2:0 32 0] [19 0] 0 0
s 1.238312849 _11_ RTR  --- 46 ack 40 [0 0 0 0] ------- [11:0 2:0 30 2] [19 0] 0 0
r 1.240237189 _2_ AGT  --- 32 ack 40 [13a 2 b 800] ------- [11:0 2:0 30 2] [13 0] 1 0
s 1.240237189 _2_ AGT  --- 47 tcp 1040 [0 0 0 0] ------- [2:0 11:0 32 0] [27 0] 0 0
r 1.240237189 _2_ RTR  --- 47 tcp 1040 [0 0 0 0] ------- [2:0 11:0 32 0] [27 0] 0 0
s 1.240237189 _2_ AGT  --- 48 tcp 1040 [0 0 0 0] ------- [2:0 11:0 32 0] [28 0] 0 0
r 1.240237189 _2_ RTR  --- 48 tcp 1040 [0 0 0 0] ------- [2:0 11:0 32 0] [28 0] 0 0
s 1.240237189 _2_ RTR  --- 47 tcp 1040 [0 0 0 0] ------- [2:0 11:0 30 11] [27 0] 0 0
s 1.240237189 _2_ RTR  --- 48 tcp 1040 [0 0 0 0] ------- [2:0 11:0 30 11] [28 0] 0 0
r 1.250281529 _11_ AGT  --- 34 tcp 1040 [13a b 2 800] ------- [2:0 11:0 30 11] [20 0] 1 0
s 1.250281529 _11_ AGT  --- 49 ack 40 [0 0 0 0] ------- [11:0 2:0 32 0] [20 0] 0 0
r 1.250281529 _11_ RTR  --- 49 ack 40 [0 0 0 0] ------- [11:0 2:0 32 0] [20 0] 0 0
s 1.250281529 _11_ RTR  --- 49 ack 40 [0 0 0 0] ------- [11:0 2:0 30 2] [20 0] 0 0
r 1.252205869 _2_ AGT  --- 35 ack 40 [13a 2 b 800] ------- [11:0 2:0 30 2] [14 0] 1 0
s 1.252205869 _2_ AGT  --- 50 tcp 1040 [0 0 0 0] ------- [2:0 11:0 32 0] [29 0] 0 0
r 1.252205869 _2_ RTR  --- 50 tcp 1040 [0 0 0 0] ------- [2:0 11:0 32 0] [29 0] 0 0
s 1.252205869 _2_ AGT  --- 51 tcp 1040 [0 0 0 0] ------- [2:0 11:0 32 0] [30 0] 0 0
r 1.252205869 _2_ RTR  --- 51 tcp 1040 [0 0 0 0] ------- [2:0 11:0 32 0] [30 0] 0 0
s 1.252205869 _2_ RTR  --- 50 tcp 1040 [0 0 0 0] ------- [2:0 11:0 30 11] [29 0] 0 0
s 1.252205869 _2_ RTR  --- 51 tcp 1040 [0 0 0 0] ------- [2:0 11:0 30 11] [30 0] 0 0
r 1.254070323 _2_ AGT  --- 36 ack 40 [13a 2 b 800] ------- [11:0 2:0 30 2] [15 0] 1 0
s 1.254070323 _2_ AGT  --- 52 tcp 1040 [0 0 0 0] ------- [2:0 11:0 32 0] [31 0] 0 0
r 1.254070323 _2_ RTR  --- 52 tcp 1040 [0 0 0 0] ------- [2:0 11:0 32 0] [31 0] 0 0
s 1.254070323 _2_ AGT  --- 53 tcp 1040 [0 0 0 0] ------- [2:0 11:0 32 0] [32 0] 0 0
r 1.254070323 _2_ RTR  --- 53 tcp 1040 [0 0 0 0] ------- [2:0 11:0 32 0] [32 0] 0 0
s 1.254070323 _2_ RTR  --- 52 tcp 1040 [0 0 0 0] ------- [2:0 11:0 30 11] [31 0] 0 0
s 1.254070323 _2_ RTR  --- 53 tcp 1040 [0 0 0 0] ------- [2:0 11:0 30 11] [32 0] 0 0
r 1.264114663 _11_ AGT  --- 38 tcp 1040 [13a b 2 800] ------- [2:0 11:0 30 11] [21 0] 1 0
s 1.264114663 _11_ AGT  --- 54 ack 40 [0 0 0 0] ------- [11:0 2:0 32 0] [21 0] 0 0
r 1.264114663 _11_ RTR  --- 54 ack 40 [0 0 0 0] ------- [11:0 2:0 32 0] [21 0] 0 0
s 1.264114663 _11_ RTR  --- 54 ack 40 [0 0 0 0] ------- [11:0 2:0 30 2] [21 0] 0 0
r 1.274159116 _11_ AGT  --- 39 tcp 1040 [13a b 2 800] ------- [2:0 11:0 30 11] [22 0] 1 0
s 1.274159116 _11_ AGT  --- 55 ack 40 [0 0 0 0] ------- [11:0 2:0 32 0] [22 0] 0 0
r 1.274159116 _11_ RTR  --- 55 ack 40 [0 0 0 0] ------- [11:0 2:0 32 0] [22 0] 0 0
s 1.274159116 _11_ RTR  --- 55 ack 40 [0 0 0 0] ------- [11:0 2:0 30 2] [22 0] 0 0
r 1.276143456 _2_ AGT  --- 37 ack 40 [13a 2 b 800] ------- [11:0 2:0 30 2] [16 0] 1 0
s 1.276143456 _2_ AGT  --- 56 tcp 1040 [0 0 0 0] ------- [2:0 11:0 32 0] [33 0] 0 0
r 1.276143456 _2_ RTR  --- 56 tcp 1040 [0 0 0 0] ------- [2:0 11:0 32 0] [33 0] 0 0
s 1.276143456 _2_ AGT  --- 57 tcp 1040 [0 0 0 0] ------- [2:0 11:0 32 0] [34 0] 0 0
r 1.276143456 _2_ RTR  --- 57 tcp 1040 [0 0 0 0] ------- [2:0 11:0 32 0] [34 0] 0 0
s 1.276143456 _2_ RTR  --- 56 tcp 1040 [0 0 0 0] ------- [2:0 11:0 30 11] [33 0] 0 0
s 1.276143456 _2_ RTR  --- 57 tcp 1040 [0 0 0 0] ------- [2:0 11:0 30 11] [34 0] 0 0
r 1.286007796 _11_ AGT  --- 40 tcp 1040 [13a b 2 800] ------- [2:0 11:0 30 11] [23 0] 1 0
s 1.286007796 _11_ AGT  --- 58 ack 40 [0 0 0 0] ------- [11:0 2:0 32 0] [23 0] 0 0
r 1.286007796 _11_ RTR  --- 58 ack 40 [0 0 0 0] ------- [11:0 2:0 32 0] [23 0] 0 0
s 1.286007796 _11_ RTR  --- 58 ack 40 [0 0 0 0] ------- [11:0 2:0 30 2] [23 0] 0 0
r 1.287972136 _2_ AGT  --- 42 ack 40 [13a 2 b 800] ------- [11:0 2:0 30 2] [17 0] 1 0
s 1.287972136 _2_ AGT  --- 59 tcp 1040 [0 0 0 0] ------- [2:0 11:0 32 0] [35 0] 0 0
r 1.287972136 _2_ RTR  --- 59 tcp 1040 [0 0 0 0] ------- [2:0 11:0 32 0] [35 0] 0 0
s 1.287972136 _2_ AGT  --- 60 tcp 1040 [0 0 0 0] ------- [2:0 11:0 32 0] [36 0] 0 0
r 1.287972136 _2_ RTR  --- 60 tcp 1040 [0 0 0 0] ------- [2:0 11:0 32 0] [36 0] 0 0
s 1.287972136 _2_ RTR  --- 59 tcp 1040 [0 0 0 0] ------- [2:0 11:0 30 11] [35 0] 0 0
s 1.287972136 _2_ RTR  --- 60 tcp 1040 [0 0 0 0] ------- [2:0 11:0 30 11] [36 0] 0 0
r 1.298116476 _11_ AGT  --- 41 tcp 1040 [13a b 2 800] ------- [2:0 11:0 30 11] [24 0] 1 0
s 1.298116476 _11_ AGT  --- 61 ack 40 [0 0 0 0] ------- [11:0 2:0 32 0] [24 0] 0 0
r 1.298116476 _11_ RTR  --- 61 ack 40 [0 0 0 0] ------- [11:0 2:0 32 0] [24 0] 0 0
s 1.298116476 _11_ RTR  --- 61 ack 40 [0 0 0 0] ------- [11:0 2:0 30 2] [24 0] 0 0
r 1.300040816 _2_ AGT  --- 45 ack 40 [13a 2 b 800] ------- [11:0 2:0 30 2] [18 0] 1 0
s 1.300040816 _2_ AGT  --- 62 tcp 1040 [0 0 0 0] ------- [2:0 11:0 32 0] [37 0] 0 0
r 1.300040816 _2_ RTR  --- 62 tcp 1040 [0 0 0 0] ------- [2:0 11:0 32 0] [37 0] 0 0
s 1.300040816 _2_ AGT  --- 63 tcp 1040 [0 0 0 0] ------- [2:0 11:0 32 0] [38 0] 0 0
r 1.300040816 _2_ RTR  --- 63 tcp 1040 [0 0 0 0] ------- [2:0 11:0 32 0] [38 0] 0 0
s 1.300040816 _2_ RTR  --- 62 tcp 1040 [0 0 0 0] ------- [2:0 11:0 30 11] [37 0] 0 0
s 1.300040816 _2_ RTR  --- 63 tcp 1040 [0 0 0 0] ------- [2:0 11:0 30 11] [38 0] 0 0
r 1.309905156 _11_ AGT  --- 43 tcp 1040 [13a b 2 800] ------- [2:0 11:0 30 11] [25 0] 1 0
s 1.309905156 _11_ AGT  --- 64 ack 40 [0 0 0 0] ------- [11:0 2:0 32 0] [25 0] 0 0
r 1.309905156 _11_ RTR  --- 64 ack 40 [0 0 0 0] ------- [11:0 2:0 32 0] [25 0] 0 0
s 1.309905156 _11_ RTR  --- 64 ack 40 [0 0 0 0] ------- [11:0 2:0 30 2] [25 0] 0 0
r 1.311869496 _2_ AGT  --- 46 ack 40 [13a 2 b 800] ------- [11:0 2:0 30 2] [19 0] 1 0
s 1.311869496 _2_ AGT  --- 65 tcp 1040 [0 0 0 0] ------- [2:0 11:0 32 0] [39 0] 0 0
r 1.311869496 _2_ RTR  --- 65 tcp 1040 [0 0 0 0] ------- [2:0 11:0 32 0] [39 0] 0 0
s 1.311869496 _2_ RTR  --- 65 tcp 1040 [0 0 0 0] ------- [2:0 11:0 30 11] [39 0] 0 0
r 1.313693949 _2_ AGT  --- 49 ack 40 [13a 2 b 800] ------- [11:0 2:0 30 2] [20 0] 1 0
s 1.313693949 _2_ AGT  --- 66 tcp 1040 [0 0 0 0] ------- [2:0 11:0 32 0] [40 0] 0 0
r 1.313693949 _2_ RTR  --- 66 tcp 1040 [0 0 0 0] ------- [2:0 11:0 32 0] [40 0] 0 0
s 1.313693949 _2_ RTR  --- 66 tcp 1040 [0 0 0 0] ------- [2:0 11:0 30 11] [40 0] 0 0
r 1.323618289 _11_ AGT  --- 44 tcp 1040 [13a b 2 800] ------- [2:0 11:0 30 11] [26 0] 1 0