n -t * -s 0  -x 257 -y 280 -Z 0 -z 30  -v circle -c black
n -t * -s 1  -x 260 -y 58 -Z 0 -z 30  -v circle -c black
n -t * -s 2  -x 484 -y 349 -Z 0 -z 30  -v circle -c black
n -t * -s 3  -x 443 -y 76 -Z 0 -z 30  -v circle -c black
n -t * -s 4  -x 452 -y 62 -Z 0 -z 30  -v circle -c black
n -t * -s 5  -x 14 -y 362 -Z 0 -z 30  -v circle -c black
n -t * -s 6  -x 338 -y 41 -Z 0 -z 30  -v circle -c black
n -t * -s 7  -x 123 -y 102 -Z 0 -z 30  -v circle -c black
n -t * -s 8  -x 57 -y 215 -Z 0 -z 30  -v circle -c black
n -t * -s 9  -x 132 -y 208 -Z 0 -z 30  -v circle -c black
n -t * -s 10  -x 184 -y 312 -Z 0 -z 30  -v circle -c black
n -t * -s 11  -x 454 -y 333 -Z 0 -z 30  -v circle -c black
n -t * -s 12  -x 28 -y 76 -Z 0 -z 30  -v circle -c black
n -t * -s 13  -x 379 -y 331 -Z 0 -z 30  -v circle -c black
n -t * -s 14  -x 397 -y 317 -Z 0 -z 30  -v circle -c black
V -t * -v 1.0a5 -a 0
W -t * -x 500 -y 400
A -t * -n 1 -p 0 -o 0x7fffffff -c 30 -a 1
A -t * -h 1 -m 1073741823 -s 0
+ -t 1.000000000 -s 2 -d -1 -p tcp -e 40 -c 2 -a 0 -i 0 -k AGT 
- -t 1.000000000 -s 2 -d -1 -p tcp -e 40 -c 2 -a 0 -i 0 -k AGT
h -t 1.000000000 -s 2 -d -1 -p tcp -e 40 -c 2 -a 0 -i 0 -k AGT
+ -t 1.000000000 -s 2 -d -1 -p AODV -e 48 -c 2 -a 0 -i 0 -k RTR 
- -t 1.000000000 -s 2 -d -1 -p AODV -e 48 -c 2 -a 0 -i 0 -k RTR
h -t 1.000000000 -s 2 -d -1 -p AODV -e 48 -c 2 -a 0 -i 0 -k RTR
r -t 1.000988113 -s 11 -d -1 -p AODV -e 48 -c 2 -a 0 -i 0 -k RTR
+ -t 1.000988113 -s 11 -d 2 -p AODV -e 44 -c 2 -a 0 -i 0 -k RTR 
- -t 1.000988113 -s 11 -d 2 -p AODV -e 44 -c 2 -a 0 -i 0 -k RTR
h -t 1.000988113 -s 11 -d 2 -p AODV -e 44 -c 2 -a 0 -i 0 -k RTR
r -t 1.000988309 -s 14 -d -1 -p AODV -e 48 -c 2 -a 0 -i 0 -k RTR
r -t 1.000988355 -s 13 -d -1 -p AODV -e 48 -c 2 -a 0 -i 0 -k RTR
r -t 1.000988791 -s 0 -d -1 -p AODV -e 48 -c 2 -a 0 -i 0 -k RTR
+ -t 1.001869536 -s 14 -d -1 -p AODV -e 48 -c 2 -a 0 -i 0 -k RTR 
- -t 1.001869536 -s 14 -d -1 -p AODV -e 48 -c 2 -a 0 -i 0 -k RTR
h -t 1.001869536 -s 14 -d -1 -p AODV -e 48 -c 2 -a 0 -i 0 -k RTR
r -t 1.003057612 -s 13 -d -1 -p AODV -e 48 -c 2 -a 0 -i 0 -k RTR
r -t 1.003057733 -s 11 -d -1 -p AODV -e 48 -c 2 -a 0 -i 0 -k RTR
r -t 1.003057845 -s 2 -d -1 -p AODV -e 48 -c 2 -a 0 -i 0 -k RTR
r -t 1.003058018 -s 0 -d -1 -p AODV -e 48 -c 2 -a 0 -i 0 -k RTR
r -t 1.003058246 -s 10 -d -1 -p AODV -e 48 -c 2 -a 0 -i 0 -k RTR
r -t 1.003058354 -s 3 -d -1 -p AODV -e 48 -c 2 -a 0 -i 0 -k RTR
+ -t 1.005400089 -s 13 -d -1 -p AODV -e 48 -c 2 -a 0 -i 0 -k RTR 
- -t 1.005400089 -s 13 -d -1 -p AODV -e 48 -c 2 -a 0 -i 0 -k RTR
h -t 1.005400089 -s 13 -d -1 -p AODV -e 48 -c 2 -a 0 -i 0 -k RTR
+ -t 1.006149036 -s 10 -d -1 -p AODV -e 48 -c 2 -a 0 -i 0 -k RTR 
- -t 1.006149036 -s 10 -d -1 -p AODV -e 48 -c 2 -a 0 -i 0 -k RTR
h -t 1.006149036 -s 10 -d -1 -p AODV -e 48 -c 2 -a 0 -i 0 -k RTR
+ -t 1.006508525 -s 2 -d 11 -p tcp -e 40 -c 2 -a 0 -i 0 -k RTR 
- -t 1.006508525 -s 2 -d 11 -p tcp -e 40 -c 2 -a 0 -i 0 -k RTR
h -t 1.006508525 -s 2 -d 11 -p tcp -e 40 -c 2 -a 0 -i 0 -k RTR
r -t 1.007880956 -s 14 -d -1 -p AODV -e 48 -c 2 -a 0 -i 0 -k RTR
r -t 1.007881130 -s 11 -d -1 -p AODV -e 48 -c 2 -a 0 -i 0 -k RTR
r -t 1.007881235 -s 2 -d -1 -p AODV -e 48 -c 2 -a 0 -i 0 -k RTR
r -t 1.007881321 -s 0 -d -1 -p AODV -e 48 -c 2 -a 0 -i 0 -k RTR
r -t 1.007881533 -s 10 -d -1 -p AODV -e 48 -c 2 -a 0 -i 0 -k RTR
+ -t 1.008980345 -s 0 -d -1 -p AODV -e 48 -c 2 -a 0 -i 0 -k RTR 
- -t 1.008980345 -s 0 -d -1 -p AODV -e 48 -c 2 -a 0 -i 0 -k RTR
h -t 1.008980345 -s 0 -d -1 -p AODV -e 48 -c 2 -a 0 -i 0 -k RTR
r -t 1.009139799 -s 0 -d -1 -p AODV -e 48 -c 2 -a 0 -i 0 -k RTR
r -t 1.009139920 -s 9 -d -1 -p AODV -e 48 -c 2 -a 0 -i 0 -k RTR
r -t 1.009140066 -s 8 -d -1 -p AODV -e 48 -c 2 -a 0 -i 0 -k RTR
r -t 1.009140124 -s 5 -d -1 -p AODV -e 48 -c 2 -a 0 -i 0 -k RTR
r -t 1.009140262 -s 7 -d -1 -p AODV -e 48 -c 2 -a 0 -i 0 -k RTR
r -t 1.010378064 -s 10 -d -1 -p AODV -e 48 -c 2 -a 0 -i 0 -k RTR
r -t 1.010378239 -s 13 -d -1 -p AODV -e 48 -c 2 -a 0 -i 0 -k RTR
r -t 1.010378279 -s 9 -d -1 -p AODV -e 48 -c 2 -a 0 -i 0 -k RTR
r -t 1.010378281 -s 14 -d -1 -p AODV -e 48 -c 2 -a 0 -i 0 -k RTR
r -t 1.010378479 -s 11 -d -1 -p AODV -e 48 -c 2 -a 0 -i 0 -k RTR
r -t 1.010378500 -s 8 -d -1 -p AODV -e 48 -c 2 -a 0 -i 0 -k RTR
r -t 1.010378539 -s 1 -d -1 -p AODV -e 48 -c 2 -a 0 -i 0 -k RTR
r -t 1.010378541 -s 7 -d -1 -p AODV -e 48 -c 2 -a 0 -i 0 -k RTR
r -t 1.010378589 -s 2 -d -1 -p AODV -e 48 -c 2 -a 0 -i 0 -k RTR
+ -t 1.011421589 -s 3 -d -1 -p AODV -e 48 -c 2 -a 0 -i 0 -k RTR 
- -t 1.011421589 -s 3 -d -1 -p AODV -e 48 -c 2 -a 0 -i 0 -k RTR
h -t 1.011421589 -s 3 -d -1 -p AODV -e 48 -c 2 -a 0 -i 0 -k RTR
+ -t 1.011720945 -s 8 -d -1 -p AODV -e 48 -c 2 -a 0 -i 0 -k RTR 
- -t 1.011720945 -s 8 -d -1 -p AODV -e 48 -c 2 -a 0 -i 0 -k RTR
h -t 1.011720945 -s 8 -d -1 -p AODV -e 48 -c 2 -a 0 -i 0 -k RTR
r -t 1.011928929 -s 11 -d 11 -p tcp -e 40 -c 2 -a 0 -i 0 -k AGT
+ -t 1.011928929 -s 11 -d -1 -p ack -e 40 -c 2 -a 0 -i 1 -k AGT 
- -t 1.011928929 -s 11 -d -1 -p ack -e 40 -c 2 -a 0 -i 1 -k AGT
h -t 1.011928929 -s 11 -d -1 -p ack -e 40 -c 2 -a 0 -i 1 -k AGT
+ -t 1.011928929 -s 11 -d 2 -p ack -e 40 -c 2 -a 0 -i 1 -k RTR 
- -t 1.011928929 -s 11 -d 2 -p ack -e 40 -c 2 -a 0 -i 1 -k RTR
h -t 1.011928929 -s 11 -d 2 -p ack -e 40 -c 2 -a 0 -i 1 -k RTR
+ -t 1.012627331 -s 9 -d -1 -p AODV -e 48 -c 2 -a 0 -i 0 -k RTR 
- -t 1.012627331 -s 9 -d -1 -p AODV -e 48 -c 2 -a 0 -i 0 -k RTR
h -t 1.012627331 -s 9 -d -1 -p AODV -e 48 -c 2 -a 0 -i 0 -k RTR
+ -t 1.013226980 -s 5 -d -1 -p AODV -e 48 -c 2 -a 0 -i 0 -k RTR 
- -t 1.013226980 -s 5 -d -1 -p AODV -e 48 -c 2 -a 0 -i 0 -k RTR
h -t 1.013226980 -s 5 -d -1 -p AODV -e 48 -c 2 -a 0 -i 0 -k RTR
r -t 1.013615582 -s 8 -d -1 -p AODV -e 48 -c 2 -a 0 -i 0 -k RTR
r -t 1.013615685 -s 7 -d -1 -p AODV -e 48 -c 2 -a 0 -i 0 -k RTR
r -t 1.013615718 -s 10 -d -1 -p AODV -e 48 -c 2 -a 0 -i 0 -k RTR
r -t 1.013615812 -s 0 -d -1 -p AODV -e 48 -c 2 -a 0 -i 0 -k RTR
r -t 1.013615891 -s 12 -d -1 -p AODV -e 48 -c 2 -a 0 -i 0 -k RTR
r -t 1.013615977 -s 5 -d -1 -p AODV -e 48 -c 2 -a 0 -i 0 -k RTR
r -t 1.013615988 -s 1 -d -1 -p AODV -e 48 -c 2 -a 0 -i 0 -k RTR
+ -t 1.014326750 -s 7 -d -1 -p AODV -e 48 -c 2 -a 0 -i 0 -k RTR 
- -t 1.014326750 -s 7 -d -1 -p AODV -e 48 -c 2 -a 0 -i 0 -k RTR
h -t 1.014326750 -s 7 -d -1 -p AODV -e 48 -c 2 -a 0 -i 0 -k RTR
r -t 1.014813833 -s 9 -d -1 -p AODV -e 48 -c 2 -a 0 -i 0 -k RTR
r -t 1.014814018 -s 7 -d -1 -p AODV -e 48 -c 2 -a 0 -i 0 -k RTR
r -t 1.014814055 -s 12 -d -1 -p AODV -e 48 -c 2 -a 0 -i 0 -k RTR
r -t 1.016157245 -s 12 -d -1 -p AODV -e 48 -c 2 -a 0 -i 0 -k RTR
r -t 1.016157272 -s 9 -d -1 -p AODV -e 48 -c 2 -a 0 -i 0 -k RTR
r -t 1.016157353 -s 8 -d -1 -p AODV -e 48 -c 2 -a 0 -i 0 -k RTR
r -t 1.016157397 -s 1 -d -1 -p AODV -e 48 -c 2 -a 0 -i 0 -k RTR
+ -t 1.017301607 -s 1 -d -1 -p AODV -e 48 -c 2 -a 0 -i 0 -k RTR 
- -t 1.017301607 -s 1 -d -1 -p AODV -e 48 -c 2 -a 0 -i 0 -k RTR
h -t 1.017301607 -s 1 -d -1 -p AODV -e 48 -c 2 -a 0 -i 0 -k RTR
r -t 1.017820043 -s 4 -d -1 -p AODV -e 48 -c 2 -a 0 -i 0 -k RTR
r -t 1.017820356 -s 6 -d -1 -p AODV -e 48 -c 2 -a 0 -i 0 -k RTR
r -t 1.017820600 -s 1 -d -1 -p AODV -e 48 -c 2 -a 0 -i 0 -k RTR
r -t 1.017820805 -s 14 -d -1 -p AODV -e 48 -c 2 -a 0 -i 0 -k RTR
+ -t 1.018404383 -s 6 -d -1 -p AODV -e 48 -c 2 -a 0 -i 0 -k RTR 
- -t 1.018404383 -s 6 -d -1 -p AODV -e 48 -c 2 -a 0 -i 0 -k RTR
h -t 1.018404383 -s 6 -d -1 -p AODV -e 48 -c 2 -a 0 -i 0 -k RTR
r -t 1.018938866 -s 6 -d -1 -p AODV -e 48 -c 2 -a 0 -i 0 -k RTR
r -t 1.018939080 -s 7 -d -1 -p AODV -e 48 -c 2 -a 0 -i 0 -k RTR
r -t 1.018939213 -s 3 -d -1 -p AODV -e 48 -c 2 -a 0 -i 0 -k RTR
r -t 1.018939240 -s 4 -d -1 -p AODV -e 48 -c 2 -a 0 -i 0 -k RTR
r -t 1.018939258 -s 9 -d -1 -p AODV -e 48 -c 2 -a 0 -i 0 -k RTR
r -t 1.018939340 -s 0 -d -1 -p AODV -e 48 -c 2 -a 0 -i 0 -k RTR
r -t 1.018939376 -s 12 -d -1 -p AODV -e 48 -c 2 -a 0 -i 0 -k RTR
+ -t 1.018940356 -s 4 -d -1 -p AODV -e 48 -c 2 -a 0 -i 0 -k RTR 
- -t 1.018940356 -s 4 -d -1 -p AODV -e 48 -c 2 -a 0 -i 0 -k RTR
h -t 1.018940356 -s 4 -d -1 -p AODV -e 48 -c 2 -a 0 -i 0 -k RTR
r -t 1.019957133 -s 1 -d -1 -p AODV -e 48 -c 2 -a 0 -i 0 -k RTR
r -t 1.019957235 -s 3 -d -1 -p AODV -e 48 -c 2 -a 0 -i 0 -k RTR
r -t 1.019957253 -s 4 -d -1 -p AODV -e 48 -c 2 -a 0 -i 0 -k RTR
r -t 1.019957611 -s 7 -d -1 -p AODV -e 48 -c 2 -a 0 -i 0 -k RTR
r -t 1.021295308 -s 3 -d -1 -p AODV -e 48 -c 2 -a 0 -i 0 -k RTR
r -t 1.021295639 -s 6 -d -1 -p AODV -e 48 -c 2 -a 0 -i 0 -k RTR
r -t 1.021295893 -s 1 -d -1 -p AODV -e 48 -c 2 -a 0 -i 0 -k RTR
+ -t 1.022665346 -s 12 -d -1 -p AODV -e 48 -c 2 -a 0 -i 0 -k RTR 
- -t 1.022665346 -s 12 -d -1 -p AODV -e 48 -c 2 -a 0 -i 0 -k RTR
h -t 1.022665346 -s 12 -d -1 -p AODV -e 48 -c 2 -a 0 -i 0 -k RTR
r -t 1.023790496 -s 2 -d 2 -p ack -e 40 -c 2 -a 0 -i 1 -k AGT
+ -t 1.023790496 -s 2 -d -1 -p tcp -e 1040 -c 2 -a 0 -i 2 -k AGT 
- -t 1.023790496 -s 2 -d -1 -p tcp -e 1040 -c 2 -a 0 -i 2 -k AGT
h -t 1.023790496 -s 2 -d -1 -p tcp -e 1040 -c 2 -a 0 -i 2 -k AGT
+ -t 1.023790496 -s 2 -d -1 -p tcp -e 1040 -c 2 -a 0 -i 3 -k AGT 
- -t 1.023790496 -s 2 -d -1 -p tcp -e 1040 -c 2 -a 0 -i 3 -k AGT
h -t 1.023790496 -s 2 -d -1 -p tcp -e 1040 -c 2 -a 0 -i 3 -k AGT
+ -t 1.023790496 -s 2 -d 11 -p tcp -e 1040 -c 2 -a 0 -i 2 -k RTR 
- -t 1.023790496 -s 2 -d 11 -p tcp -e 1040 -c 2 -a 0 -i 2 -k RTR
h -t 1.023790496 -s 2 -d 11 -p tcp -e 1040 -c 2 -a 0 -i 2 -k RTR
+ -t 1.023790496 -s 2 -d 11 -p tcp -e 1040 -c 2 -a 0 -i 3 -k RTR 
- -t 1.023790496 -s 2 -d 11 -p tcp -e 1040 -c 2 -a 0 -i 3 -k RTR
h -t 1.023790496 -s 2 -d 11 -p tcp -e 1040 -c 2 -a 0 -i 3 -k RTR
r -t 1.034094836 -s 11 -d 11 -p tcp -e 1040 -c 2 -a 0 -i 2 -k AGT
+ -t 1.034094836 -s 11 -d -1 -p ack -e 40 -c 2 -a 0 -i 4 -k AGT 
- -t 1.034094836 -s 11 -d -1 -p ack -e 40 -c 2 -a 0 -i 4 -k AGT
h -t 1.034094836 -s 11 -d -1 -p ack -e 40 -c 2 -a 0 -i 4 -k AGT
+ -t 1.034094836 -s 11 -d 2 -p ack -e 40 -c 2 -a 0 -i 4 -k RTR 
- -t 1.034094836 -s 11 -d 2 -p ack -e 40 -c 2 -a 0 -i 4 -k RTR
h -t 1.034094836 -s 11 -d 2 -p ack -e 40 -c 2 -a 0 -i 4 -k RTR
r -t 1.036139176 -s 2 -d 2 -p ack -e 40 -c 2 -a 0 -i 4 -k AGT
+ -t 1.036139176 -s 2 -d -1 -p tcp -e 1040 -c 2 -a 0 -i 5 -k AGT 
- -t 1.036139176 -s 2 -d -1 -p tcp -e 1040 -c 2 -a 0 -i 5 -k AGT
h -t 1.036139176 -s 2 -d -1 -p tcp -e 1040 -c 2 -a 0 -i 5 -k AGT
+ -t 1.036139176 -s 2 -d -1 -p tcp -e 1040 -c 2 -a 0 -i 6 -k AGT 
- -t 1.036139176 -s 2 -d -1 -p tcp -e 1040 -c 2 -a 0 -i 6 -k AGT
h -t 1.036139176 -s 2 -d -1 -p tcp -e 1040 -c 2 -a 0 -i 6 -k AGT
+ -t 1.036139176 -s 2 -d 11 -p tcp -e 1040 -c 2 -a 0 -i 5 -k RTR 
- -t 1.036139176 -s 2 -d 11 -p tcp -e 1040 -c 2 -a 0 -i 5 -k RTR
h -t 1.036139176 -s 2 -d 11 -p tcp -e 1040 -c 2 -a 0 -i 5 -k RTR
+ -t 1.036139176 -s 2 -d 11 -p tcp -e 1040 -c 2 -a 0 -i 6 -k RTR 
- -t 1.036139176 -s 2 -d 11 -p tcp -e 1040 -c 2 -a 0 -i 6 -k RTR
h -t 1.036139176 -s 2 -d 11 -p tcp -e 1040 -c 2 -a 0 -i 6 -k RTR
r -t 1.046083516 -s 11 -d 11 -p tcp -e 1040 -c 2 -a 0 -i 3 -k AGT
+ -t 1.046083516 -s 11 -d -1 -p ack -e 40 -c 2 -a 0 -i 7 -k AGT 
- -t 1.046083516 -s 11 -d -1 -p ack -e 40 -c 2 -a 0 -i 7 -k AGT
h -t 1.046083516 -s 11 -d -1 -p ack -e 40 -c 2 -a 0 -i 7 -k AGT
+ -t 1.046083516 -s 11 -d 2 -p ack -e 40 -c 2 -a 0 -i 7 -k RTR 
- -t 1.046083516 -s 11 -d 2 -p ack -e 40 -c 2 -a 0 -i 7 -k RTR
h -t 1.046083516 -s 11 -d 2 -p ack -e 40 -c 2 -a 0 -i 7 -k RTR
r -t 1.047967856 -s 2 -d 2 -p ack -e 40 -c 2 -a 0 -i 7 -k AGT
+ -t 1.047967856 -s 2 -d -1 -p tcp -e 1040 -c 2 -a 0 -i 8 -k AGT 
- -t 1.047967856 -s 2 -d -1 -p tcp -e 1040 -c 2 -a 0 -i 8 -k AGT
h -t 1.047967856 -s 2 -d -1 -p tcp -e 1040 -c 2 -a 0 -i 8 -k AGT
+ -t 1.047967856 -s 2 -d -1 -p tcp -e 1040 -c 2 -a 0 -i 9 -k AGT 
- -t 1.047967856 -s 2 -d -1 -p tcp -e 1040 -c 2 -a 0 -i 9 -k AGT
h -t 1.047967856 -s 2 -d -1 -p tcp -e 1040 -c 2 -a 0 -i 9 -k AGT
+ -t 1.047967856 -s 2 -d 11 -p tcp -e 1040 -c 2 -a 0 -i 8 -k RTR 
- -t 1.047967856 -s 2 -d 11 -p tcp -e 1040 -c 2 -a 0 -i 8 -k RTR
h -t 1.047967856 -s 2 -d 11 -p tcp -e 1040 -c 2 -a 0 -i 8 -k RTR
+ -t 1.047967856 -s 2 -d 11 -p tcp -e 1040 -c 2 -a 0 -i 9 -k RTR 
- -t 1.047967856 -s 2 -d 11 -p tcp -e 1040 -c 2 -a 0 -i 9 -k RTR
h -t 1.047967856 -s 2 -d 11 -p tcp -e 1040 -c 2 -a 0 -i 9 -k RTR
r -t 1.057972196 -s 11 -d 11 -p tcp -e 1040 -c 2 -a 0 -i 5 -k AGT
+ -t 1.057972196 -s 11 -d -1 -p ack -e 40 -c 2 -a 0 -i 10 -k AGT 
- -t 1.057972196 -s 11 -d -1 -p ack -e 40 -c 2 -a 0 -i 10 -k AGT
h -t 1.057972196 -s 11 -d -1 -p ack -e 40 -c 2 -a 0 -i 10 -k AGT
+ -t 1.057972196 -s 11 -d 2 -p ack -e 40 -c 2 -a 0 -i 10 -k RTR 
- -t 1.057972196 -s 11 -d 2 -p ack -e 40 -c 2 -a 0 -i 10 -k RTR
h -t 1.057972196 -s 11 -d 2 -p ack -e 40 -c 2 -a 0 -i 10 -k RTR
r -t 1.067796649 -s 11 -d 11 -p tcp -e 1040 -c 2 -a 0 -i 6 -k AGT
+ -t 1.067796649 -s 11 -d -1 -p ack -e 40 -c 2 -a 0 -i 11 -k AGT 
- -t 1.067796649 -s 11 -d -1 -p ack -e 40 -c 2 -a 0 -i 11 -k AGT
h -t 1.067796649 -s 11 -d -1 -p ack -e 40 -c 2 -a 0 -i 11 -k AGT
+ -t 1.067796649 -s 11 -d 2 -p ack -e 40 -c 2 -a 0 -i 11 -k RTR 
- -t 1.067796649 -s 11 -d 2 -p ack -e 40 -c 2 -a 0 -i 11 -k RTR
h -t 1.067796649 -s 11 -d 2 -p ack -e 40 -c 2 -a 0 -i 11 -k RTR
r -t 1.077861103 -s 11 -d 11 -p tcp -e 1040 -c 2 -a 0 -i 8 -k AGT
+ -t 1.077861103 -s 11 -d -1 -p ack -e 40 -c 2 -a 0 -i 12 -k AGT 
- -t 1.077861103 -s 11 -d -1 -p ack -e 40 -c 2 -a 0 -i 12 -k AGT
h -t 1.077861103 -s 11 -d -1 -p ack -e 40 -c 2 -a 0 -i 12 -k AGT
+ -t 1.077861103 -s 11 -d 2 -p ack -e 40 -c 2 -a 0 -i 12 -k RTR 
- -t 1.077861103 -s 11 -d 2 -p ack -e 40 -c 2 -a 0 -i 12 -k RTR
h -t 1.077861103 -s 11 -d 2 -p ack -e 40 -c 2 -a 0 -i 12 -k RTR
r -t 1.079745443 -s 2 -d 2 -p ack -e 40 -c 2 -a 0 -i 10 -k AGT
+ -t 1.079745443 -s 2 -d -1 -p tcp -e 1040 -c 2 -a 0 -i 13 -k AGT 
- -t 1.079745443 -s 2 -d -1 -p tcp -e 1040 -c 2 -a 0 -i 13 -k AGT
h -t 1.079745443 -s 2 -d -1 -p tcp -e 1040 -c 2 -a 0 -i 13 -k AGT
+ -t 1.079745443 -s 2 -d -1 -p tcp -e 1040 -c 2 -a 0 -i 14 -k AGT 
- -t 1.079745443 -s 2 -d -1 -p tcp -e 1040 -c 2 -a 0 -i 14 -k AGT
h -t 1.079745443 -s 2 -d -1 -p tcp -e 1040 -c 2 -a 0 -i 14 -k AGT
+ -t 1.079745443 -s 2 -d 11 -p tcp -e 1040 -c 2 -a 0 -i 13 -k RTR 
- -t 1.079745443 -s 2 -d 11 -p tcp -e 1040 -c 2 -a 0 -i 13 -k RTR
h -t 1.079745443 -s 2 -d 11 -p tcp -e 1040 -c 2 -a 0 -i 13 -k RTR
+ -t 1.079745443 -s 2 -d 11 -p tcp -e 1040 -c 2 -a 0 -i 14 -k RTR 
- -t 1.079745443 -s 2 -d 11 -p tcp -e 1040 -c 2 -a 0 -i 14 -k RTR
h -t 1.079745443 -s 2 -d 11 -p tcp -e 1040 -c 2 -a 0 -i 14 -k RTR
r -t 1.089829783 -s 11 -d 11 -p tcp -e 1040 -c 2 -a 0 -i 9 -k AGT
+ -t 1.089829783 -s 11 -d -1 -p ack -e 40 -c 2 -a 0 -i 15 -k AGT 
- -t 1.089829783 -s 11 -d -1 -p ack -e 40 -c 2 -a 0 -i 15 -k AGT
h -t 1.089829783 -s 11 -d -1 -p ack -e 40 -c 2 -a 0 -i 15 -k AGT
+ -t 1.089829783 -s 11 -d 2 -p ack -e 40 -c 2 -a 0 -i 15 -k RTR 
- -t 1.089829783 -s 11 -d 2 -p ack -e 40 -c 2 -a 0 -i 15 -k RTR
h -t 1.089829783 -s 11 -d 2 -p ack -e 40 -c 2 -a 0 -i 15 -k RTR
r -t 1.099674236 -s 11 -d 11 -p tcp -e 1040 -c 2 -a 0 -i 13 -k AGT
+ -t 1.099674236 -s 11 -d -1 -p ack -e 40 -c 2 -a 0 -i 16 -k AGT 
- -t 1.099674236 -s 11 -d -1 -p ack -e 40 -c 2 -a 0 -i 16 -k AGT
h -t 1.099674236 -s 11 -d -1 -p ack -e 40 -c 2 -a 0 -i 16 -k AGT
+ -t 1.099674236 -s 11 -d 2 -p ack -e 40 -c 2 -a 0 -i 16 -k RTR 
- -t 1.099674236 -s 11 -d 2 -p ack -e 40 -c 2 -a 0 -i 16 -k RTR
h -t 1.099674236 -s 11 -d 2 -p ack -e 40 -c 2 -a 0 -i 16 -k RTR
r -t 1.101518576 -s 2 -d 2 -p ack -e 40 -c 2 -a 0 -i 11 -k AGT
+ -t 1.101518576 -s 2 -d -1 -p tcp -e 1040 -c 2 -a 0 -i 17 -k AGT 
- -t 1.101518576 -s 2 -d -1 -p tcp -e 1040 -c 2 -a 0 -i 17 -k AGT
h -t 1.101518576 -s 2 -d -1 -p tcp -e 1040 -c 2 -a 0 -i 17 -k AGT
+ -t 1.101518576 -s 2 -d -1 -p tcp -e 1040 -c 2 -a 0 -i 18 -k AGT 
- -t 1.101518576 -s 2 -d -1 -p tcp -e 1040 -c 2 -a 0 -i 18 -k AGT
h -t 1.101518576 -s 2 -d -1 -p tcp -e 1040 -c 2 -a 0 -i 18 -k AGT
+ -t 1.101518576 -s 2 -d 11 -p tcp -e 1040 -c 2 -a 0 -i 17 -k RTR 
- -t 1.101518576 -s 2 -d 11 -p tcp -e 1040 -c 2 -a 0 -i 17 -k RTR
h -t 1.101518576 -s 2 -d 11 -p tcp -e 1040 -c 2 -a 0 -i 17 -k RTR
+ -t 1.101518576 -s 2 -d 11 -p tcp -e 1040 -c 2 -a 0 -i 18 -k RTR 
- -t 1.101518576 -s 2 -d 11 -p tcp -e 1040 -c 2 -a 0 -i 18 -k RTR
h -t 1.101518576 -s 2 -d 11 -p tcp -e 1040 -c 2 -a 0 -i 18 -k RTR
r -t 1.103583029 -s 2 -d 2 -p ack -e 40 -c 2 -a 0 -i 12 -k AGT
+ -t 1.103583029 -s 2 -d -1 -p tcp -e 1040 -c 2 -a 0 -i 19 -k AGT 
- -t 1.103583029 -s 2 -d -1 -p tcp -e 1040 -c 2 -a 0 -i 19 -k AGT
h -t 1.103583029 -s 2 -d -1 -p tcp -e 1040 -c 2 -a 0 -i 19 -k AGT
+ -t 1.103583029 -s 2 -d -1 -p tcp -e 1040 -c 2 -a 0 -i 20 -k AGT 
- -t 1.103583029 -s 2 -d -1 -p tcp -e 1040 -c 2 -a 0 -i 20 -k AGT
h -t 1.103583029 -s 2 -d -1 -p tcp -e 1040 -c 2 -a 0 -i 20 -k AGT
+ -t 1.103583029 -s 2 -d 11 -p tcp -e 1040 -c 2 -a 0 -i 19 -k RTR 
- -t 1.103583029 -s 2 -d 11 -p tcp -e 1040 -c 2 -a 0 -i 19 -k RTR
h -t 1.103583029 -s 2 -d 11 -p tcp -e 1040 -c 2 -a 0 -i 19 -k RTR
+ -t 1.103583029 -s 2 -d 11 -p tcp -e 1040 -c 2 -a 0 -i 20 -k RTR 
- -t 1.103583029 -s 2 -d 11 -p tcp -e 1040 -c 2 -a 0 -i 20 -k RTR
h -t 1.103583029 -s 2 -d 11 -p tcp -e 1040 -c 2 -a 0 -i 20 -k RTR
r -t 1.105527483 -s 2 -d 2 -p ack -e 40 -c 2 -a 0 -i 15 -k AGT
+ -t 1.105527483 -s 2 -d -1 -p tcp -e 1040 -c 2 -a 0 -i 21 -k AGT 
- -t 1.105527483 -s 2 -d -1 -p tcp -e 1040 -c 2 -a 0 -i 21 -k AGT
h -t 1.105527483 -s 2 -d -1 -p tcp -e 1040 -c 2 -a 0 -i 21 -k AGT
+ -t 1.105527483 -s 2 -d -1 -p tcp -e 1040 -c 2 -a 0 -i 22 -k AGT 
- -t 1.105527483 -s 2 -d -1 -p tcp -e 1040 -c 2 -a 0 -i 22 -k AGT
h -t 1.105527483 -s 2 -d -1 -p tcp -e 1040 -c 2 -a 0 -i 22 -k AGT
+ -t 1.105527483 -s 2 -d 11 -p tcp -e 1040 -c 2 -a 0 -i 21 -k RTR 
- -t 1.105527483 -s 2 -d 11 -p tcp -e 1040 -c 2 -a 0 -i 21 -k RTR
h -t 1.105527483 -s 2 -d 11 -p tcp -e 1040 -c 2 -a 0 -i 21 -k RTR
+ -t 1.105527483 -s 2 -d 11 -p tcp -e 1040 -c 2 -a 0 -i 22 -k RTR 
- -t 1.105527483 -s 2 -d 11 -p tcp -e 1040 -c 2 -a 0 -i 22 -k RTR
h -t 1.105527483 -s 2 -d 11 -p tcp -e 1040 -c 2 -a 0 -i 22 -k RTR
r -t 1.115471823 -s 11 -d 11 -p tcp -e 1040 -c 2 -a 0 -i 14 -k AGT
+ -t 1.115471823 -s 11 -d -1 -p ack -e 40 -c 2 -a 0 -i 23 -k AGT 
- -t 1.115471823 -s 11 -d -1 -p ack -e 40 -c 2 -a 0 -i 23 -k AGT
h -t 1.115471823 -s 11 -d -1 -p ack -e 40 -c 2 -a 0 -i 23 -k AGT
+ -t 1.115471823 -s 11 -d 2 -p ack -e 40 -c 2 -a 0 -i 23 -k RTR 
- -t 1.115471823 -s 11 -d 2 -p ack -e 40 -c 2 -a 0 -i 23 -k RTR
h -t 1.115471823 -s 11 -d 2 -p ack -e 40 -c 2 -a 0 -i 23 -k RTR
r -t 1.125336276 -s 11 -d 11 -p tcp -e 1040 -c 2 -a 0 -i 17 -k AGT
+ -t 1.125336276 -s 11 -d -1 -p ack -e 40 -c 2 -a 0 -i 24 -k AGT 
- -t 1.125336276 -s 11 -d -1 -p ack -e 40 -c 2 -a 0 -i 24 -k AGT
h -t 1.125336276 -s 11 -d -1 -p ack -e 40 -c 2 -a 0 -i 24 -k AGT
+ -t 1.125336276 -s 11 -d 2 -p ack -e 40 -c 2 -a 0 -i 24 -k RTR 
- -t 1.125336276 -s 11 -d 2 -p ack -e 40 -c 2 -a 0 -i 24 -k RTR
h -t 1.125336276 -s 11 -d 2 -p ack -e 40 -c 2 -a 0 -i 24 -k RTR
r -t 1.127320616 -s 2 -d 2 -p ack -e 40 -c 2 -a 0 -i 16 -k AGT
+ -t 1.127320616 -s 2 -d -1 -p tcp -e 1040 -c 2 -a 0 -i 25 -k AGT 
- -t 1.127320616 -s 2 -d -1 -p tcp -e 1040 -c 2 -a 0 -i 25 -k AGT
h -t 1.127320616 -s 2 -d -1 -p tcp -e 1040 -c 2 -a 0 -i 25 -k AGT
+ -t 1.127320616 -s 2 -d -1 -p tcp -e 1040 -c 2 -a 0 -i 26 -k AGT 
- -t 1.127320616 -s 2 -d -1 -p tcp -e 1040 -c 2 -a 0 -i 26 -k AGT
h -t 1.127320616 -s 2 -d -1 -p tcp -e 1040 -c 2 -a 0 -i 26 -k AGT
+ -t 1.127320616 -s 2 -d 11 -p tcp -e 1040 -c 2 -a 0 -i 25 -k RTR 
- -t 1.127320616 -s 2 -d 11 -p tcp -e 1040 -c 2 -a 0 -i 25 -k RTR
h -t 1.127320616 -s 2 -d 11 -p tcp -e 1040 -c 2 -a 0 -i 25 -k RTR
+ -t 1.127320616 -s 2 -d 11 -p tcp -e 1040 -c 2 -a 0 -i 26 -k RTR 
- -t 1.127320616 -s 2 -d 11 -p tcp -e 1040 -c 2 -a 0 -i 26 -k RTR
h -t 1.127320616 -s 2 -d 11 -p tcp -e 1040 -c 2 -a 0 -i 26 -k RTR
r -t 1.129265069 -s 2 -d 2 -p ack -e 40 -c 2 -a 0 -i 23 -k AGT
+ -t 1.129265069 -s 2 -d -1 -p tcp -e 1040 -c 2 -a 0 -i 27 -k AGT 
- -t 1.129265069 -s 2 -d -1 -p tcp -e 1040 -c 2 -a 0 -i 27 -k AGT
h -t 1.129265069 -s 2 -d -1 -p tcp -e 1040 -c 2 -a 0 -i 27 -k AGT
+ -t 1.129265069 -s 2 -d -1 -p tcp -e 1040 -c 2 -a 0 -i 28 -k AGT 
- -t 1.129265069 -s 2 -d -1 -p tcp -e 1040 -c 2 -a 0 -i 28 -k AGT
h -t 1.129265069 -s 2 -d -1 -p tcp -e 1040 -c 2 -a 0 -i 28 -k AGT
+ -t 1.129265069 -s 2 -d 11 -p tcp -e 1040 -c 2 -a 0 -i 27 -k RTR 
- -t 1.129265069 -s 2 -d 11 -p tcp -e 1040 -c 2 -a 0 -i 27 -k RTR
h -t 1.129265069 -s 2 -d 11 -p tcp -e 1040 -c 2 -a 0 -i 27 -k RTR
+ -t 1.129265069 -s 2 -d 11 -p tcp -e 1040 -c 2 -a 0 -i 28 -k RTR 
- -t 1.129265069 -s 2 -d 11 -p tcp -e 1040 -c 2 -a 0 -i 28 -k RTR
h -t 1.129265069 -s 2 -d 11 -p tcp -e 1040 -c 2 -a 0 -i 28 -k RTR
r -t 1.140175636 -s 11 -d 11 -p tcp -e 1040 -c 2 -a 0 -i 18 -k AGT
+ -t 1.140175636 -s 11 -d -1 -p ack -e 40 -c 2 -a 0 -i 29 -k AGT 
- -t 1.140175636 -s 11 -d -1 -p ack -e 40 -c 2 -a 0 -i 29 -k AGT
h -t 1.140175636 -s 11 -d -1 -p ack -e 40 -c 2 -a 0 -i 29 -k AGT
+ -t 1.140175636 -s 11 -d 2 -p ack -e 40 -c 2 -a 0 -i 29 -k RTR 
- -t 1.140175636 -s 11 -d 2 -p ack -e 40 -c 2 -a 0 -i 29 -k RTR
h -t 1.140175636 -s 11 -d 2 -p ack -e 40 -c 2 -a 0 -i 29 -k RTR
r -t 1.150260089 -s 11 -d 11 -p tcp -e 1040 -c 2 -a 0 -i 19 -k AGT
+ -t 1.150260089 -s 11 -d -1 -p ack -e 40 -c 2 -a 0 -i 30 -k AGT 
- -t 1.150260089 -s 11 -d -1 -p ack -e 40 -c 2 -a 0 -i 30 -k AGT
h -t 1.150260089 -s 11 -d -1 -p ack -e 40 -c 2 -a 0 -i 30 -k AGT
+ -t 1.150260089 -s 11 -d 2 -p ack -e 40 -c 2 -a 0 -i 30 -k RTR 
- -t 1.150260089 -s 11 -d 2 -p ack -e 40 -c 2 -a 0 -i 30 -k RTR
h -t 1.150260089 -s 11 -d 2 -p ack -e 40 -c 2 -a 0 -i 30 -k RTR
r -t 1.160284543 -s 11 -d 11 -p tcp -e 1040 -c 2 -a 0 -i 20 -k AGT
+ -t 1.160284543 -s 11 -d -1 -p ack -e 40 -c 2 -a 0 -i 31 -k AGT 
- -t 1.160284543 -s 11 -d -1 -p ack -e 40 -c 2 -a 0 -i 31 -k AGT
h -t 1.160284543 -s 11 -d -1 -p ack -e 40 -c 2 -a 0 -i 31 -k AGT
+ -t 1.160284543 -s 11 -d 2 -p ack -e 40 -c 2 -a 0 -i 31 -k RTR 
- -t 1.160284543 -s 11 -d 2 -p ack -e 40 -c 2 -a 0 -i 31 -k RTR
h -t 1.160284543 -s 11 -d 2 -p ack -e 40 -c 2 -a 0 -i 31 -k RTR
r -t 1.170168996 -s 11 -d 11 -p tcp -e 1040 -c 2 -a 0 -i 21 -k AGT
+ -t 1.170168996 -s 11 -d -1 -p ack -e 40 -c 2 -a 0 -i 32 -k AGT 
- -t 1.170168996 -s 11 -d -1 -p ack -e 40 -c 2 -a 0 -i 32 -k AGT
h -t 1.170168996 -s 11 -d -1 -p ack -e 40 -c 2 -a 0 -i 32 -k AGT
+ -t 1.170168996 -s 11 -d 2 -p ack -e 40 -c 2 -a 0 -i 32 -k RTR 
- -t 1.170168996 -s 11 -d 2 -p ack -e 40 -c 2 -a 0 -i 32 -k RTR
h -t 1.170168996 -s 11 -d 2 -p ack -e 40 -c 2 -a 0 -i 32 -k RTR
r -t 1.172073336 -s 2 -d 2 -p ack -e 40 -c 2 -a 0 -i 24 -k AGT
+ -t 1.172073336 -s 2 -d -1 -p tcp -e 1040 -c 2 -a 0 -i 33 -k AGT 
- -t 1.172073336 -s 2 -d -1 -p tcp -e 1040 -c 2 -a 0 -i 33 -k AGT
h -t 1.172073336 -s 2 -d -1 -p tcp -e 1040 -c 2 -a 0 -i 33 -k AGT
+ -t 1.172073336 -s 2 -d -1 -p tcp -e 1040 -c 2 -a 0 -i 34 -k AGT 
- -t 1.172073336 -s 2 -d -1 -p tcp -e 1040 -c 2 -a 0 -i 34 -k AGT
h -t 1.172073336 -s 2 -d -1 -p tcp -e 1040 -c 2 -a 0 -i 34 -k AGT
+ -t 1.172073336 -s 2 -d 11 -p tcp -e 1040 -c 2 -a 0 -i 33 -k RTR 
- -t 1.172073336 -s 2 -d 11 -p tcp -e 1040 -c 2 -a 0 -i 33 -k RTR
h -t 1.172073336 -s 2 -d 11 -p tcp -e 1040 -c 2 -a 0 -i 33 -k RTR
+ -t 1.172073336 -s 2 -d 11 -p tcp -e 1040 -c 2 -a 0 -i 34 -k RTR 
- -t 1.172073336 -s 2 -d 11 -p tcp -e 1040 -c 2 -a 0 -i 34 -k RTR
h -t 1.172073336 -s 2 -d 11 -p tcp -e 1040 -c 2 -a 0 -i 34 -k RTR
r -t 1.182177676 -s 11 -d 11 -p tcp -e 1040 -c 2 -a 0 -i 22 -k AGT
+ -t 1.182177676 -s 11 -d -1 -p ack -e 40 -c 2 -a 0 -i 35 -k AGT 
- -t 1.182177676 -s 11 -d -1 -p ack -e 40 -c 2 -a 0 -i 35 -k AGT
h -t 1.182177676 -s 11 -d -1 -p ack -e 40 -c 2 -a 0 -i 35 -k AGT
+ -t 1.182177676 -s 11 -d 2 -p ack -e 40 -c 2 -a 0 -i 35 -k RTR 
- -t 1.182177676 -s 11 -d 2 -p ack -e 40 -c 2 -a 0 -i 35 -k RTR
h -t 1.182177676 -s 11 -d 2 -p ack -e 40 -c 2 -a 0 -i 35 -k RTR
r -t 1.192122129 -s 11 -d 11 -p tcp -e 1040 -c 2 -a 0 -i 25 -k AGT
+ -t 1.192122129 -s 11 -d -1 -p ack -e 40 -c 2 -a 0 -i 36 -k AGT 
- -t 1.192122129 -s 11 -d -1 -p ack -e 40 -c 2 -a 0 -i 36 -k AGT
h -t 1.192122129 -s 11 -d -1 -p ack -e 40 -c 2 -a 0 -i 36 -k AGT
+ -t 1.192122129 -s 11 -d 2 -p ack -e 40 -c 2 -a 0 -i 36 -k RTR 
- -t 1.192122129 -s 11 -d 2 -p ack -e 40 -c 2 -a 0 -i 36 -k RTR
h -t 1.192122129 -s 11 -d 2 -p ack -e 40 -c 2 -a 0 -i 36 -k RTR
r -t 1.202006583 -s 11 -d 11 -p tcp -e 1040 -c 2 -a 0 -i 26 -k AGT
+ -t 1.202006583 -s 11 -d -1 -p ack -e 40 -c 2 -a 0 -i 37 -k AGT 
- -t 1.202006583 -s 11 -d -1 -p ack -e 40 -c 2 -a 0 -i 37 -k AGT
h -t 1.202006583 -s 11 -d -1 -p ack -e 40 -c 2 -a 0 -i 37 -k AGT
+ -t 1.202006583 -s 11 -d 2 -p ack -e 40 -c 2 -a 0 -i 37 -k RTR 
- -t 1.202006583 -s 11 -d 2 -p ack -e 40 -c 2 -a 0 -i 37 -k RTR
h -t 1.202006583 -s 11 -d 2 -p ack -e 40 -c 2 -a 0 -i 37 -k RTR
r -t 1.203990923 -s 2 -d 2 -p ack -e 40 -c 2 -a 0 -i 29 -k AGT
+ -t 1.203990923 -s 2 -d -1 -p tcp -e 1040 -c 2 -a 0 -i 38 -k AGT 
- -t 1.203990923 -s 2 -d -1 -p tcp -e 1040 -c 2 -a 0 -i 38 -k AGT
h -t 1.203990923 -s 2 -d -1 -p tcp -e 1040 -c 2 -a 0 -i 38 -k AGT
+ -t 1.203990923 -s 2 -d -1 -p tcp -e 1040 -c 2 -a 0 -i 39 -k AGT 
- -t 1.203990923 -s 2 -d -1 -p tcp -e 1040 -c 2 -a 0 -i 39 -k AGT
h -t 1.203990923 -s 2 -d -1 -p tcp -e 1040 -c 2 -a 0 -i 39 -k AGT
+ -t 1.203990923 -s 2 -d 11 -p tcp -e 1040 -c 2 -a 0 -i 38 -k RTR 
- -t 1.203990923 -s 2 -d 11 -p tcp -e 1040 -c 2 -a 0 -i 38 -k RTR
h -t 1.203990923 -s 2 -d 11 -p tcp -e 1040 -c 2 -a 0 -i 38 -k RTR
+ -t 1.203990923 -s 2 -d 11 -p tcp -e 1040 -c 2 -a 0 -i 39 -k RTR 
- -t 1.203990923 -s 2 -d 11 -p tcp -e 1040 -c 2 -a 0 -i 39 -k RTR
h -t 1.203990923 -s 2 -d 11 -p tcp -e 1040 -c 2 -a 0 -i 39 -k RTR
r -t 1.205935376 -s 2 -d 2 -p ack -e 40 -c 2 -a 0 -i 30 -k AGT
+ -t 1.205935376 -s 2 -d -1 -p tcp -e 1040 -c 2 -a 0 -i 40 -k AGT 
- -t 1.205935376 -s 2 -d -1 -p tcp -e 1040 -c 2 -a 0 -i 40 -k AGT
h -t 1.205935376 -s 2 -d -1 -p tcp -e 1040 -c 2 -a 0 -i 40 -k AGT
+ -t 1.205935376 -s 2 -d -1 -p tcp -e 1040 -c 2 -a 0 -i 41 -k AGT 
- -t 1.205935376 -s 2 -d -1 -p tcp -e 1040 -c 2 -a 0 -i 41 -k AGT
h -t 1.205935376 -s 2 -d -1 -p tcp -e 1040 -c 2 -a 0 -i 41 -k AGT
+ -t 1.205935376 -s 2 -d 11 -p tcp -e 1040 -c 2 -a 0 -i 40 -k RTR 
- -t 1.205935376 -s 2 -d 11 -p tcp -e 1040 -c 2 -a 0 -i 40 -k RTR
h -t 1.205935376 -s 2 -d 11 -p tcp -e 1040 -c 2 -a 0 -i 40 -k RTR
+ -t 1.205935376 -s 2 -d 11 -p tcp -e 1040 -c 2 -a 0 -i 41 -k RTR 
- -t 1.205935376 -s 2 -d 11 -p tcp -e 1040 -c 2 -a 0 -i 41 -k RTR
h -t 1.205935376 -s 2 -d 11 -p tcp -e 1040 -c 2 -a 0 -i 41 -k RTR
r -t 1.216079716 -s 11 -d 11 -p tcp -e 1040 -c 2 -a 0 -i 27 -k AGT
+ -t 1.216079716 -s 11 -d -1 -p ack -e 40 -c 2 -a 0 -i 42 -k AGT 
- -t 1.216079716 -s 11 -d -1 -p ack -e 40 -c 2 -a 0 -i 42 -k AGT
h -t 1.216079716 -s 11 -d -1 -p ack -e 40 -c 2 -a 0 -i 42 -k AGT
+ -t 1.216079716 -s 11 -d 2 -p ack -e 40 -c 2 -a 0 -i 42 -k RTR 
- -t 1.216079716 -s 11 -d 2 -p ack -e 40 -c 2 -a 0 -i 42 -k RTR
h -t 1.216079716 -s 11 -d 2 -p ack -e 40 -c 2 -a 0 -i 42 -k RTR
r -t 1.218204056 -s 2 -d 2 -p ack -e 40 -c 2 -a 0 -i 31 -k AGT
+ -t 1.218204056 -s 2 -d -1 -p tcp -e 1040 -c 2 -a 0 -i 43 -k AGT 
- -t 1.218204056 -s 2 -d -1 -p tcp -e 1040 -c 2 -a 0 -i 43 -k AGT
h -t 1.218204056 -s 2 -d -1 -p tcp -e 1040 -c 2 -a 0 -i 43 -k AGT
+ -t 1.218204056 -s 2 -d -1 -p tcp -e 1040 -c 2 -a 0 -i 44 -k AGT 
- -t 1.218204056 -s 2 -d -1 -p tcp -e 1040 -c 2 -a 0 -i 44 -k AGT
h -t 1.218204056 -s 2 -d -1 -p tcp -e 1040 -c 2 -a 0 -i 44 -k AGT
+ -t 1.218204056 -s 2 -d 11 -p tcp -e 1040 -c 2 -a 0 -i 43 -k RTR 
- -t 1.218204056 -s 2 -d 11 -p tcp -e 1040 -c 2 -a 0 -i 43 -k RTR
h -t 1.218204056 -s 2 -d 11 -p tcp -e 1040 -c 2 -a 0 -i 43 -k RTR
+ -t 1.218204056 -s 2 -d 11 -p tcp -e 1040 -c 2 -a 0 -i 44 -k RTR 
- -t 1.218204056 -s 2 -d 11 -p tcp -e 1040 -c 2 -a 0 -i 44 -k RTR
h -t 1.218204056 -s 2 -d 11 -p tcp -e 1040 -c 2 -a 0 -i 44 -k RTR
r -t 1.228188396 -s 11 -d 11 -p tcp -e 1040 -c 2 -a 0 -i 28 -k AGT
+ -t 1.228188396 -s 11 -d -1 -p ack -e 40 -c 2 -a 0 -i 45 -k AGT 
- -t 1.228188396 -s 11 -d -1 -p ack -e 40 -c 2 -a 0 -i 45 -k AGT
h -t 1.228188396 -s 11 -d -1 -p ack -e 40 -c 2 -a 0 -i 45 -k AGT
+ -t 1.228188396 -s 11 -d 2 -p ack -e 40 -c 2 -a 0 -i 45 -k RTR 
- -t 1.228188396 -s 11 -d 2 -p ack -e 40 -c 2 -a 0 -i 45 -k RTR
h -t 1.228188396 -s 11 -d 2 -p ack -e 40 -c 2 -a 0 -i 45 -k RTR
r -t 1.238312849 -s 11 -d 11 -p tcp -e 1040 -c 2 -a 0 -i 33 -k AGT
+ -t 1.238312849 -s 11 -d -1 -p ack -e 40 -c 2 -a 0 -i 46 -k AGT 
- -t 1.238312849 -s 11 -d -1 -p ack -e 40 -c 2 -a 0 -i 46 -k AGT
h -t 1.238312849 -s 11 -d -1 -p ack -e 40 -c 2 -a 0 -i 46 -k AGT
+ -t 1.238312849 -s 11 -d 2 -p ack -e 40 -c 2 -a 0 -i 46 -k RTR 
- -t 1.238312849 -s 11 -d 2 -p ack -e 40 -c 2 -a 0 -i 46 -k RTR
h -t 1.238312849 -s 11 -d 2 -p ack -e 40 -c 2 -a 0 -i 46 -k RTR
r -t 1.240237189 -s 2 -d 2 -p ack -e 40 -c 2 -a 0 -i 32 -k AGT
+ -t 1.240237189 -s 2 -d -1 -p tcp -e 1040 -c 2 -a 0 -i 47 -k AGT 
- -t 1.240237189 -s 2 -d -1 -p tcp -e 1040 -c 2 -a 0 -i 47 -k AGT
h -t 1.240237189 -s 2 -d -1 -p tcp -e 1040 -c 2 -a 0 -i 47 -k AGT
+ -t 1.240237189 -s 2 -d -1 -p tcp -e 1040 -c 2 -a 0 -i 48 -k AGT 
- -t 1.240237189 -s 2 -d -1 -p tcp -e 1040 -c 2 -a 0 -i 48 -k AGT
h -t 1.240237189 -s 2 -d -1 -p tcp -e 1040 -c 2 -a 0 -i 48 -k AGT
+ -t 1.240237189 -s 2 -d 11 -p tcp -e 1040 -c 2 -a 0 -i 47 -k RTR 
- -t 1.240237189 -s 2 -d 11 -p tcp -e 1040 -c 2 -a 0 -i 47 -k RTR
h -t 1.240237189 -s 2 -d 11 -p tcp -e 1040 -c 2 -a 0 -i 47 -k RTR
+ -t 1.240237189 -s 2 -d 11 -p tcp -e 1040 -c 2 -a 0 -i 48 -k RTR 
- -t 1.240237189 -s 2 -d 11 -p tcp -e 1040 -c 2 -a 0 -i 48 -k RTR
h -t 1.240237189 -s 2 -d 11 -p tcp -e 1040 -c 2 -a 0 -i 48 -k RTR
r -t 1.250281529 -s 11 -d 11 -p tcp -e 1040 -c 2 -a 0 -i 34 -k AGT
+ -t 1.250281529 -s 11 -d -1 -p ack -e 40 -c 2 -a 0 -i 49 -k AGT 
- -t 1.250281529 -s 11 -d -1 -p ack -e 40 -c 2 -a 0 -i 49 -k AGT
h -t 1.250281529 -s 11 -d -1 -p ack -e 40 -c 2 -a 0 -i 49 -k AGT
+ -t 1.250281529 -s 11 -d 2 -p ack -e 40 -c 2 -a 0 -i 49 -k RTR 
- -t 1.250281529 -s 11 -d 2 -p ack -e 40 -c 2 -a 0 -i 49 -k RTR
h -t 1.250281529 -s 11 -d 2 -p ack -e 40 -c 2 -a 0 -i 49 -k RTR
r -t 1.252205869 -s 2 -d 2 -p ack -e 40 -c 2 -a 0 -i 35 -k AGT
+ -t 1.252205869 -s 2 -d -1 -p tcp -e 1040 -c 2 -a 0 -i 50 -k AGT 
- -t 1.252205869 -s 2 -d -1 -p tcp -e 1040 -c 2 -a 0 -i 50 -k AGT
h -t 1.252205869 -s 2 -d -1 -p tcp -e 1040 -c 2 -a 0 -i 50 -k AGT