+ 0.00017 0 1 rtProtoDV 7 ------- 0 0.1 1.2 -1 0
- 0.00017 0 1 rtProtoDV 7 ------- 0 0.1 1.2 -1 0
+ 0.00017 0 2 rtProtoDV 7 ------- 0 0.1 2.1 -1 1
- 0.00017 0 2 rtProtoDV 7 ------- 0 0.1 2.1 -1 1
+ 0.00017 0 3 rtProtoDV 7 ------- 0 0.1 3.2 -1 2
- 0.00017 0 3 rtProtoDV 7 ------- 0 0.1 3.2 -1 2
+ 0.00017 0 4 rtProtoDV 7 ------- 0 0.1 4.2 -1 3
- 0.00017 0 4 rtProtoDV 7 ------- 0 0.1 4.2 -1 3
+ 0.00017 0 5 rtProtoDV 7 ------- 0 0.1 5.1 -1 4
- 0.00017 0 5 rtProtoDV 7 ------- 0 0.1 5.1 -1 4
+ 0.00017 0 6 rtProtoDV 7 ------- 0 0.1 6.2 -1 5
- 0.00017 0 6 rtProtoDV 7 ------- 0 0.1 6.2 -1 5
+ 0.007102 2 0 rtProtoDV 7 ------- 0 2.1 0.1 -1 6
- 0.007102 2 0 rtProtoDV 7 ------- 0 2.1 0.1 -1 6
r 0.010279 0 1 rtProtoDV 7 ------- 0 0.1 1.2 -1 0
+ 0.010279 1 0 rtProtoDV 7 ------- 0 1.2 0.1 -1 7
- 0.010279 1 0 rtProtoDV 7 ------- 0 1.2 0.1 -1 7
r 0.010279 0 2 rtProtoDV 7 ------- 0 0.1 2.1 -1 1
+ 0.010279 2 0 rtProtoDV 7 ------- 0 2.1 0.1 -1 8
- 0.010279 2 0 rtProtoDV 7 ------- 0 2.1 0.1 -1 8
r 0.010279 0 3 rtProtoDV 7 ------- 0 0.1 3.2 -1 2
+ 0.010279 3 0 rtProtoDV 7 ------- 0 3.2 0.1 -1 9
- 0.010279 3 0 rtProtoDV 7 ------- 0 3.2 0.1 -1 9
r 0.010279 0 4 rtProtoDV 7 ------- 0 0.1 4.2 -1 3
+ 0.010279 4 0 rtProtoDV 7 ------- 0 4.2 0.1 -1 10
- 0.010279 4 0 rtProtoDV 7 ------- 0 4.2 0.1 -1 10
r 0.010279 0 5 rtProtoDV 7 ------- 0 0.1 5.1 -1 4
+ 0.010279 5 0 rtProtoDV 7 ------- 0 5.1 0.1 -1 11
- 0.010279 5 0 rtProtoDV 7 ------- 0 5.1 0.1 -1 11
r 0.010279 0 6 rtProtoDV 7 ------- 0 0.1 6.2 -1 5
+ 0.010279 6 0 rtProtoDV 7 ------- 0 6.2 0.1 -1 12
- 0.010279 6 0 rtProtoDV 7 ------- 0 6.2 0.1 -1 12
r 0.017212 2 0 rtProtoDV 7 ------- 0 2.1 0.1 -1 6
r 0.020389 1 0 rtProtoDV 7 ------- 0 1.2 0.1 -1 7
r 0.020389 2 0 rtProtoDV 7 ------- 0 2.1 0.1 -1 8
r 0.020389 3 0 rtProtoDV 7 ------- 0 3.2 0.1 -1 9
r 0.020389 4 0 rtProtoDV 7 ------- 0 4.2 0.1 -1 10
r 0.020389 5 0 rtProtoDV 7 ------- 0 5.1 0.1 -1 11
r 0.020389 6 0 rtProtoDV 7 ------- 0 6.2 0.1 -1 12
+ 0.044061 3 0 rtProtoDV 7 ------- 0 3.2 0.1 -1 13
- 0.044061 3 0 rtProtoDV 7 ------- 0 3.2 0.1 -1 13
r 0.054171 3 0 rtProtoDV 7 ------- 0 3.2 0.1 -1 13
+ 0.1 4 0 tcp 40 ------- 1 4.0 6.0 0 14
- 0.1 4 0 tcp 40 ------- 1 4.0 6.0 0 14
r 0.110625 4 0 tcp 40 ------- 1 4.0 6.0 0 14
+ 0.110625 0 6 tcp 40 ------- 1 4.0 6.0 0 14
- 0.110625 0 6 tcp 40 ------- 1 4.0 6.0 0 14
r 0.12125 0 6 tcp 40 ------- 1 4.0 6.0 0 14
+ 0.12125 6 0 ack 40 ------- 1 6.0 4.0 0 15
- 0.12125 6 0 ack 40 ------- 1 6.0 4.0 0 15
r 0.131875 6 0 ack 40 ------- 1 6.0 4.0 0 15
+ 0.131875 0 4 ack 40 ------- 1 6.0 4.0 0 15
- 0.131875 0 4 ack 40 ------- 1 6.0 4.0 0 15
r 0.1425 0 4 ack 40 ------- 1 6.0 4.0 0 15
+ 0.1425 4 0 tcp 1040 ------- 1 4.0 6.0 1 16
- 0.1425 4 0 tcp 1040 ------- 1 4.0 6.0 1 16
+ 0.1425 4 0 tcp 1040 ------- 1 4.0 6.0 2 17
+ 0.156481 6 0 rtProtoDV 7 ------- 0 6.2 0.1 -1 18
- 0.156481 6 0 rtProtoDV 7 ------- 0 6.2 0.1 -1 18
- 0.15875 4 0 tcp 1040 ------- 1 4.0 6.0 2 17
r 0.16659 6 0 rtProtoDV 7 ------- 0 6.2 0.1 -1 18
r 0.16875 4 0 tcp 1040 ------- 1 4.0 6.0 1 16
+ 0.16875 0 6 tcp 1040 ------- 1 4.0 6.0 1 16
- 0.16875 0 6 tcp 1040 ------- 1 4.0 6.0 1 16
r 0.185 4 0 tcp 1040 ------- 1 4.0 6.0 2 17
+ 0.185 0 6 tcp 1040 ------- 1 4.0 6.0 2 17
- 0.185 0 6 tcp 1040 ------- 1 4.0 6.0 2 17
r 0.195 0 6 tcp 1040 ------- 1 4.0 6.0 1 16
+ 0.195 6 0 ack 40 ------- 1 6.0 4.0 1 19
- 0.195 6 0 ack 40 ------- 1 6.0 4.0 1 19
+ 0.2 1 0 cbr 210 ------- 2 1.0 3.0 0 20
- 0.2 1 0 cbr 210 ------- 2 1.0 3.0 0 20
r 0.205625 6 0 ack 40 ------- 1 6.0 4.0 1 19
+ 0.205625 0 4 ack 40 ------- 1 6.0 4.0 1 19
- 0.205625 0 4 ack 40 ------- 1 6.0 4.0 1 19
+ 0.206563 1 0 cbr 210 ------- 2 1.0 3.0 1 21
- 0.206563 1 0 cbr 210 ------- 2 1.0 3.0 1 21
r 0.21125 0 6 tcp 1040 ------- 1 4.0 6.0 2 17
+ 0.21125 6 0 ack 40 ------- 1 6.0 4.0 2 22
- 0.21125 6 0 ack 40 ------- 1 6.0 4.0 2 22
+ 0.213125 1 0 cbr 210 ------- 2 1.0 3.0 2 23
- 0.213125 1 0 cbr 210 ------- 2 1.0 3.0 2 23
r 0.213281 1 0 cbr 210 ------- 2 1.0 3.0 0 20
+ 0.213281 0 3 cbr 210 ------- 2 1.0 3.0 0 20
- 0.213281 0 3 cbr 210 ------- 2 1.0 3.0 0 20
r 0.21625 0 4 ack 40 ------- 1 6.0 4.0 1 19
+ 0.21625 4 0 tcp 1040 ------- 1 4.0 6.0 3 24
- 0.21625 4 0 tcp 1040 ------- 1 4.0 6.0 3 24
+ 0.21625 4 0 tcp 1040 ------- 1 4.0 6.0 4 25
+ 0.219688 1 0 cbr 210 ------- 2 1.0 3.0 3 26
- 0.219688 1 0 cbr 210 ------- 2 1.0 3.0 3 26
r 0.219844 1 0 cbr 210 ------- 2 1.0 3.0 1 21
+ 0.219844 0 3 cbr 210 ------- 2 1.0 3.0 1 21
- 0.219844 0 3 cbr 210 ------- 2 1.0 3.0 1 21
+ 0.220587 4 0 rtProtoDV 7 ------- 0 4.2 0.1 -1 27
r 0.221875 6 0 ack 40 ------- 1 6.0 4.0 2 22
+ 0.221875 0 4 ack 40 ------- 1 6.0 4.0 2 22
- 0.221875 0 4 ack 40 ------- 1 6.0 4.0 2 22
+ 0.22625 1 0 cbr 210 ------- 2 1.0 3.0 4 28
- 0.22625 1 0 cbr 210 ------- 2 1.0 3.0 4 28
r 0.226406 1 0 cbr 210 ------- 2 1.0 3.0 2 23
+ 0.226406 0 3 cbr 210 ------- 2 1.0 3.0 2 23
- 0.226406 0 3 cbr 210 ------- 2 1.0 3.0 2 23
r 0.226563 0 3 cbr 210 ------- 2 1.0 3.0 0 20
- 0.2325 4 0 tcp 1040 ------- 1 4.0 6.0 4 25
r 0.2325 0 4 ack 40 ------- 1 6.0 4.0 2 22
+ 0.2325 4 0 tcp 1040 ------- 1 4.0 6.0 5 29
+ 0.2325 4 0 tcp 1040 ------- 1 4.0 6.0 6 30
+ 0.232813 1 0 cbr 210 ------- 2 1.0 3.0 5 31
- 0.232813 1 0 cbr 210 ------- 2 1.0 3.0 5 31
r 0.232969 1 0 cbr 210 ------- 2 1.0 3.0 3 26
+ 0.232969 0 3 cbr 210 ------- 2 1.0 3.0 3 26
- 0.232969 0 3 cbr 210 ------- 2 1.0 3.0 3 26
r 0.233125 0 3 cbr 210 ------- 2 1.0 3.0 1 21
+ 0.239375 1 0 cbr 210 ------- 2 1.0 3.0 6 32
- 0.239375 1 0 cbr 210 ------- 2 1.0 3.0 6 32
r 0.239531 1 0 cbr 210 ------- 2 1.0 3.0 4 28
+ 0.239531 0 3 cbr 210 ------- 2 1.0 3.0 4 28
- 0.239531 0 3 cbr 210 ------- 2 1.0 3.0 4 28
r 0.239688 0 3 cbr 210 ------- 2 1.0 3.0 2 23
r 0.2425 4 0 tcp 1040 ------- 1 4.0 6.0 3 24
+ 0.2425 0 6 tcp 1040 ------- 1 4.0 6.0 3 24
- 0.2425 0 6 tcp 1040 ------- 1 4.0 6.0 3 24
+ 0.245938 1 0 cbr 210 ------- 2 1.0 3.0 7 33
- 0.245938 1 0 cbr 210 ------- 2 1.0 3.0 7 33
r 0.246094 1 0 cbr 210 ------- 2 1.0 3.0 5 31
+ 0.246094 0 3 cbr 210 ------- 2 1.0 3.0 5 31
- 0.246094 0 3 cbr 210 ------- 2 1.0 3.0 5 31
r 0.24625 0 3 cbr 210 ------- 2 1.0 3.0 3 26
- 0.24875 4 0 rtProtoDV 7 ------- 0 4.2 0.1 -1 27
- 0.248859 4 0 tcp 1040 ------- 1 4.0 6.0 5 29
+ 0.2525 1 0 cbr 210 ------- 2 1.0 3.0 8 34
- 0.2525 1 0 cbr 210 ------- 2 1.0 3.0 8 34
r 0.252656 1 0 cbr 210 ------- 2 1.0 3.0 6 32
+ 0.252656 0 3 cbr 210 ------- 2 1.0 3.0 6 32
- 0.252656 0 3 cbr 210 ------- 2 1.0 3.0 6 32
r 0.252813 0 3 cbr 210 ------- 2 1.0 3.0 4 28
r 0.25875 4 0 tcp 1040 ------- 1 4.0 6.0 4 25
+ 0.25875 0 6 tcp 1040 ------- 1 4.0 6.0 4 25
- 0.25875 0 6 tcp 1040 ------- 1 4.0 6.0 4 25
r 0.258859 4 0 rtProtoDV 7 ------- 0 4.2 0.1 -1 27
+ 0.259063 1 0 cbr 210 ------- 2 1.0 3.0 9 35
- 0.259063 1 0 cbr 210 ------- 2 1.0 3.0 9 35
r 0.259219 1 0 cbr 210 ------- 2 1.0 3.0 7 33
+ 0.259219 0 3 cbr 210 ------- 2 1.0 3.0 7 33
- 0.259219 0 3 cbr 210 ------- 2 1.0 3.0 7 33
r 0.259375 0 3 cbr 210 ------- 2 1.0 3.0 5 31
- 0.265109 4 0 tcp 1040 ------- 1 4.0 6.0 6 30
+ 0.265625 1 0 cbr 210 ------- 2 1.0 3.0 10 36
- 0.265625 1 0 cbr 210 ------- 2 1.0 3.0 10 36
r 0.265781 1 0 cbr 210 ------- 2 1.0 3.0 8 34
+ 0.265781 0 3 cbr 210 ------- 2 1.0 3.0 8 34
- 0.265781 0 3 cbr 210 ------- 2 1.0 3.0 8 34
r 0.265938 0 3 cbr 210 ------- 2 1.0 3.0 6 32
r 0.26875 0 6 tcp 1040 ------- 1 4.0 6.0 3 24
+ 0.26875 6 0 ack 40 ------- 1 6.0 4.0 3 37
- 0.26875 6 0 ack 40 ------- 1 6.0 4.0 3 37
+ 0.272188 1 0 cbr 210 ------- 2 1.0 3.0 11 38
- 0.272188 1 0 cbr 210 ------- 2 1.0 3.0 11 38
r 0.272344 1 0 cbr 210 ------- 2 1.0 3.0 9 35
+ 0.272344 0 3 cbr 210 ------- 2 1.0 3.0 9 35
- 0.272344 0 3 cbr 210 ------- 2 1.0 3.0 9 35
r 0.2725 0 3 cbr 210 ------- 2 1.0 3.0 7 33
r 0.275109 4 0 tcp 1040 ------- 1 4.0 6.0 5 29
+ 0.275109 0 6 tcp 1040 ------- 1 4.0 6.0 5 29
- 0.275109 0 6 tcp 1040 ------- 1 4.0 6.0 5 29
+ 0.27794 1 0 rtProtoDV 7 ------- 0 1.2 0.1 -1 39
- 0.27794 1 0 rtProtoDV 7 ------- 0 1.2 0.1 -1 39
+ 0.27875 1 0 cbr 210 ------- 2 1.0 3.0 12 40
- 0.27875 1 0 cbr 210 ------- 2 1.0 3.0 12 40
r 0.278906 1 0 cbr 210 ------- 2 1.0 3.0 10 36
+ 0.278906 0 3 cbr 210 ------- 2 1.0 3.0 10 36
- 0.278906 0 3 cbr 210 ------- 2 1.0 3.0 10 36
r 0.279063 0 3 cbr 210 ------- 2 1.0 3.0 8 34
r 0.279375 6 0 ack 40 ------- 1 6.0 4.0 3 37
+ 0.279375 0 4 ack 40 ------- 1 6.0 4.0 3 37
- 0.279375 0 4 ack 40 ------- 1 6.0 4.0 3 37
r 0.285 0 6 tcp 1040 ------- 1 4.0 6.0 4 25
+ 0.285 6 0 ack 40 ------- 1 6.0 4.0 4 41
- 0.285 6 0 ack 40 ------- 1 6.0 4.0 4 41
+ 0.285313 1 0 cbr 210 ------- 2 1.0 3.0 13 42
- 0.285313 1 0 cbr 210 ------- 2 1.0 3.0 13 42
r 0.285469 1 0 cbr 210 ------- 2 1.0 3.0 11 38
+ 0.285469 0 3 cbr 210 ------- 2 1.0 3.0 11 38
- 0.285469 0 3 cbr 210 ------- 2 1.0 3.0 11 38
r 0.285625 0 3 cbr 210 ------- 2 1.0 3.0 9 35
r 0.28805 1 0 rtProtoDV 7 ------- 0 1.2 0.1 -1 39
r 0.29 0 4 ack 40 ------- 1 6.0 4.0 3 37
+ 0.29 4 0 tcp 1040 ------- 1 4.0 6.0 7 43
- 0.29 4 0 tcp 1040 ------- 1 4.0 6.0 7 43
+ 0.29 4 0 tcp 1040 ------- 1 4.0 6.0 8 44
r 0.291359 4 0 tcp 1040 ------- 1 4.0 6.0 6 30
+ 0.291359 0 6 tcp 1040 ------- 1 4.0 6.0 6 30
- 0.291359 0 6 tcp 1040 ------- 1 4.0 6.0 6 30
+ 0.291875 1 0 cbr 210 ------- 2 1.0 3.0 14 45
- 0.291875 1 0 cbr 210 ------- 2 1.0 3.0 14 45
r 0.292031 1 0 cbr 210 ------- 2 1.0 3.0 12 40
+ 0.292031 0 3 cbr 210 ------- 2 1.0 3.0 12 40
- 0.292031 0 3 cbr 210 ------- 2 1.0 3.0 12 40
r 0.292188 0 3 cbr 210 ------- 2 1.0 3.0 10 36
r 0.295625 6 0 ack 40 ------- 1 6.0 4.0 4 41
+ 0.295625 0 4 ack 40 ------- 1 6.0 4.0 4 41
- 0.295625 0 4 ack 40 ------- 1 6.0 4.0 4 41
+ 0.298438 1 0 cbr 210 ------- 2 1.0 3.0 15 46
- 0.298438 1 0 cbr 210 ------- 2 1.0 3.0 15 46
r 0.298594 1 0 cbr 210 ------- 2 1.0 3.0 13 42
+ 0.298594 0 3 cbr 210 ------- 2 1.0 3.0 13 42
- 0.298594 0 3 cbr 210 ------- 2 1.0 3.0 13 42
r 0.29875 0 3 cbr 210 ------- 2 1.0 3.0 11 38
r 0.301359 0 6 tcp 1040 ------- 1 4.0 6.0 5 29
+ 0.301359 6 0 ack 40 ------- 1 6.0 4.0 5 47
- 0.301359 6 0 ack 40 ------- 1 6.0 4.0 5 47
+ 0.305 1 0 cbr 210 ------- 2 1.0 3.0 16 48
- 0.305 1 0 cbr 210 ------- 2 1.0 3.0 16 48
r 0.305156 1 0 cbr 210 ------- 2 1.0 3.0 14 45
+ 0.305156 0 3 cbr 210 ------- 2 1.0 3.0 14 45
- 0.305156 0 3 cbr 210 ------- 2 1.0 3.0 14 45
r 0.305313 0 3 cbr 210 ------- 2 1.0 3.0 12 40
- 0.30625 4 0 tcp 1040 ------- 1 4.0 6.0 8 44
r 0.30625 0 4 ack 40 ------- 1 6.0 4.0 4 41
+ 0.30625 4 0 tcp 1040 ------- 1 4.0 6.0 9 49
+ 0.30625 4 0 tcp 1040 ------- 1 4.0 6.0 10 50
+ 0.311563 1 0 cbr 210 ------- 2 1.0 3.0 17 51
- 0.311563 1 0 cbr 210 ------- 2 1.0 3.0 17 51
r 0.311719 1 0 cbr 210 ------- 2 1.0 3.0 15 46
+ 0.311719 0 3 cbr 210 ------- 2 1.0 3.0 15 46
- 0.311719 0 3 cbr 210 ------- 2 1.0 3.0 15 46
r 0.311875 0 3 cbr 210 ------- 2 1.0 3.0 13 42
r 0.311984 6 0 ack 40 ------- 1 6.0 4.0 5 47
+ 0.311984 0 4 ack 40 ------- 1 6.0 4.0 5 47
- 0.311984 0 4 ack 40 ------- 1 6.0 4.0 5 47
r 0.31625 4 0 tcp 1040 ------- 1 4.0 6.0 7 43
+ 0.31625 0 6 tcp 1040 ------- 1 4.0 6.0 7 43
- 0.31625 0 6 tcp 1040 ------- 1 4.0 6.0 7 43
r 0.317609 0 6 tcp 1040 ------- 1 4.0 6.0 6 30
+ 0.317609 6 0 ack 40 ------- 1 6.0 4.0 6 52
- 0.317609 6 0 ack 40 ------- 1 6.0 4.0 6 52
+ 0.318125 1 0 cbr 210 ------- 2 1.0 3.0 18 53
- 0.318125 1 0 cbr 210 ------- 2 1.0 3.0 18 53
r 0.318281 1 0 cbr 210 ------- 2 1.0 3.0 16 48
+ 0.318281 0 3 cbr 210 ------- 2 1.0 3.0 16 48
- 0.318281 0 3 cbr 210 ------- 2 1.0 3.0 16 48
r 0.318438 0 3 cbr 210 ------- 2 1.0 3.0 14 45
- 0.3225 4 0 tcp 1040 ------- 1 4.0 6.0 9 49
r 0.322609 0 4 ack 40 ------- 1 6.0 4.0 5 47
+ 0.322609 4 0 tcp 1040 ------- 1 4.0 6.0 11 54
+ 0.322609 4 0 tcp 1040 ------- 1 4.0 6.0 12 55
+ 0.324688 1 0 cbr 210 ------- 2 1.0 3.0 19 56
- 0.324688 1 0 cbr 210 ------- 2 1.0 3.0 19 56
r 0.324844 1 0 cbr 210 ------- 2 1.0 3.0 17 51
+ 0.324844 0 3 cbr 210 ------- 2 1.0 3.0 17 51
- 0.324844 0 3 cbr 210 ------- 2 1.0 3.0 17 51
r 0.325 0 3 cbr 210 ------- 2 1.0 3.0 15 46
r 0.328234 6 0 ack 40 ------- 1 6.0 4.0 6 52
+ 0.328234 0 4 ack 40 ------- 1 6.0 4.0 6 52
- 0.328234 0 4 ack 40 ------- 1 6.0 4.0 6 52
+ 0.33125 1 0 cbr 210 ------- 2 1.0 3.0 20 57
- 0.33125 1 0 cbr 210 ------- 2 1.0 3.0 20 57
r 0.331406 1 0 cbr 210 ------- 2 1.0 3.0 18 53
+ 0.331406 0 3 cbr 210 ------- 2 1.0 3.0 18 53
- 0.331406 0 3 cbr 210 ------- 2 1.0 3.0 18 53
r 0.331563 0 3 cbr 210 ------- 2 1.0 3.0 16 48
r 0.3325 4 0 tcp 1040 ------- 1 4.0 6.0 8 44
+ 0.3325 0 6 tcp 1040 ------- 1 4.0 6.0 8 44
- 0.3325 0 6 tcp 1040 ------- 1 4.0 6.0 8 44
+ 0.337813 1 0 cbr 210 ------- 2 1.0 3.0 21 58
- 0.337813 1 0 cbr 210 ------- 2 1.0 3.0 21 58
r 0.337969 1 0 cbr 210 ------- 2 1.0 3.0 19 56
+ 0.337969 0 3 cbr 210 ------- 2 1.0 3.0 19 56
- 0.337969 0 3 cbr 210 ------- 2 1.0 3.0 19 56
r 0.338125 0 3 cbr 210 ------- 2 1.0 3.0 17 51
- 0.33875 4 0 tcp 1040 ------- 1 4.0 6.0 10 50
r 0.338859 0 4 ack 40 ------- 1 6.0 4.0 6 52
+ 0.338859 4 0 tcp 1040 ------- 1 4.0 6.0 13 59
+ 0.338859 4 0 tcp 1040 ------- 1 4.0 6.0 14 60
r 0.3425 0 6 tcp 1040 ------- 1 4.0 6.0 7 43
+ 0.3425 6 0 ack 40 ------- 1 6.0 4.0 7 61
- 0.3425 6 0 ack 40 ------- 1 6.0 4.0 7 61
+ 0.344375 1 0 cbr 210 ------- 2 1.0 3.0 22 62
- 0.344375 1 0 cbr 210 ------- 2 1.0 3.0 22 62
r 0.344531 1 0 cbr 210 ------- 2 1.0 3.0 20 57
+ 0.344531 0 3 cbr 210 ------- 2 1.0 3.0 20 57
- 0.344531 0 3 cbr 210 ------- 2 1.0 3.0 20 57
r 0.344688 0 3 cbr 210 ------- 2 1.0 3.0 18 53
r 0.34875 4 0 tcp 1040 ------- 1 4.0 6.0 9 49
+ 0.34875 0 6 tcp 1040 ------- 1 4.0 6.0 9 49
- 0.34875 0 6 tcp 1040 ------- 1 4.0 6.0 9 49
+ 0.350938 1 0 cbr 210 ------- 2 1.0 3.0 23 63
- 0.350938 1 0 cbr 210 ------- 2 1.0 3.0 23 63
r 0.351094 1 0 cbr 210 ------- 2 1.0 3.0 21 58
+ 0.351094 0 3 cbr 210 ------- 2 1.0 3.0 21 58
- 0.351094 0 3 cbr 210 ------- 2 1.0 3.0 21 58
r 0.35125 0 3 cbr 210 ------- 2 1.0 3.0 19 56
r 0.353125 6 0 ack 40 ------- 1 6.0 4.0 7 61
+ 0.353125 0 4 ack 40 ------- 1 6.0 4.0 7 61
- 0.353125 0 4 ack 40 ------- 1 6.0 4.0 7 61
- 0.355 4 0 tcp 1040 ------- 1 4.0 6.0 11 54
+ 0.3575 1 0 cbr 210 ------- 2 1.0 3.0 24 64
- 0.3575 1 0 cbr 210 ------- 2 1.0 3.0 24 64
r 0.357656 1 0 cbr 210 ------- 2 1.0 3.0 22 62
+ 0.357656 0 3 cbr 210 ------- 2 1.0 3.0 22 62
- 0.357656 0 3 cbr 210 ------- 2 1.0 3.0 22 62
r 0.357813 0 3 cbr 210 ------- 2 1.0 3.0 20 57
r 0.35875 0 6 tcp 1040 ------- 1 4.0 6.0 8 44
+ 0.35875 6 0 ack 40 ------- 1 6.0 4.0 8 65
- 0.35875 6 0 ack 40 ------- 1 6.0 4.0 8 65
r 0.36375 0 4 ack 40 ------- 1 6.0 4.0 7 61
+ 0.36375 4 0 tcp 1040 ------- 1 4.0 6.0 15 66
+ 0.36375 4 0 tcp 1040 ------- 1 4.0 6.0 16 67
+ 0.364063 1 0 cbr 210 ------- 2 1.0 3.0 25 68
- 0.364063 1 0 cbr 210 ------- 2 1.0 3.0 25 68
r 0.364219 1 0 cbr 210 ------- 2 1.0 3.0 23 63
+ 0.364219 0 3 cbr 210 ------- 2 1.0 3.0 23 63
- 0.364219 0 3 cbr 210 ------- 2 1.0 3.0 23 63
r 0.364375 0 3 cbr 210 ------- 2 1.0 3.0 21 58
r 0.365 4 0 tcp 1040 ------- 1 4.0 6.0 10 50
+ 0.365 0 6 tcp 1040 ------- 1 4.0 6.0 10 50
- 0.365 0 6 tcp 1040 ------- 1 4.0 6.0 10 50
r 0.369375 6 0 ack 40 ------- 1 6.0 4.0 8 65
+ 0.369375 0 4 ack 40 ------- 1 6.0 4.0 8 65
- 0.369375 0 4 ack 40 ------- 1 6.0 4.0 8 65
+ 0.370625 1 0 cbr 210 ------- 2 1.0 3.0 26 69
- 0.370625 1 0 cbr 210 ------- 2 1.0 3.0 26 69
r 0.370781 1 0 cbr 210 ------- 2 1.0 3.0 24 64
+ 0.370781 0 3 cbr 210 ------- 2 1.0 3.0 24 64
- 0.370781 0 3 cbr 210 ------- 2 1.0 3.0 24 64
r 0.370938 0 3 cbr 210 ------- 2 1.0 3.0 22 62
- 0.37125 4 0 tcp 1040 ------- 1 4.0 6.0 12 55
r 0.375 0 6 tcp 1040 ------- 1 4.0 6.0 9 49
+ 0.375 6 0 ack 40 ------- 1 6.0 4.0 9 70
- 0.375 6 0 ack 40 ------- 1 6.0 4.0 9 70
+ 0.377188 1 0 cbr 210 ------- 2 1.0 3.0 27 71
- 0.377188 1 0 cbr 210 ------- 2 1.0 3.0 27 71
r 0.377344 1 0 cbr 210 ------- 2 1.0 3.0 25 68
+ 0.377344 0 3 cbr 210 ------- 2 1.0 3.0 25 68
- 0.377344 0 3 cbr 210 ------- 2 1.0 3.0 25 68
r 0.3775 0 3 cbr 210 ------- 2 1.0 3.0 23 63
r 0.38 0 4 ack 40 ------- 1 6.0 4.0 8 65
+ 0.38 4 0 tcp 1040 ------- 1 4.0 6.0 17 72
+ 0.38 4 0 tcp 1040 ------- 1 4.0 6.0 18 73
r 0.38125 4 0 tcp 1040 ------- 1 4.0 6.0 11 54
+ 0.38125 0 6 tcp 1040 ------- 1 4.0 6.0 11 54
- 0.38125 0 6 tcp 1040 ------- 1 4.0 6.0 11 54
+ 0.38375 1 0 cbr 210 ------- 2 1.0 3.0 28 74
- 0.38375 1 0 cbr 210 ------- 2 1.0 3.0 28 74
r 0.383906 1 0 cbr 210 ------- 2 1.0 3.0 26 69
+ 0.383906 0 3 cbr 210 ------- 2 1.0 3.0 26 69
- 0.383906 0 3 cbr 210 ------- 2 1.0 3.0 26 69
r 0.384063 0 3 cbr 210 ------- 2 1.0 3.0 24 64
r 0.385625 6 0 ack 40 ------- 1 6.0 4.0 9 70
+ 0.385625 0 4 ack 40 ------- 1 6.0 4.0 9 70
- 0.385625 0 4 ack 40 ------- 1 6.0 4.0 9 70
- 0.3875 4 0 tcp 1040 ------- 1 4.0 6.0 13 59
+ 0.390313 1 0 cbr 210 ------- 2 1.0 3.0 29 75
- 0.390313 1 0 cbr 210 ------- 2 1.0 3.0 29 75
r 0.390469 1 0 cbr 210 ------- 2 1.0 3.0 27 71
+ 0.390469 0 3 cbr 210 ------- 2 1.0 3.0 27 71
- 0.390469 0 3 cbr 210 ------- 2 1.0 3.0 27 71
r 0.390625 0 3 cbr 210 ------- 2 1.0 3.0 25 68
r 0.39125 0 6 tcp 1040 ------- 1 4.0 6.0 10 50
+ 0.39125 6 0 ack 40 ------- 1 6.0 4.0 10 76
- 0.39125 6 0 ack 40 ------- 1 6.0 4.0 10 76
r 0.39625 0 4 ack 40 ------- 1 6.0 4.0 9 70
+ 0.39625 4 0 tcp 1040 ------- 1 4.0 6.0 19 77
+ 0.39625 4 0 tcp 1040 ------- 1 4.0 6.0 20 78
+ 0.396875 1 0 cbr 210 ------- 2 1.0 3.0 30 79
- 0.396875 1 0 cbr 210 ------- 2 1.0 3.0 30 79
r 0.397031 1 0 cbr 210 ------- 2 1.0 3.0 28 74
+ 0.397031 0 3 cbr 210 ------- 2 1.0 3.0 28 74
- 0.397031 0 3 cbr 210 ------- 2 1.0 3.0 28 74
r 0.397188 0 3 cbr 210 ------- 2 1.0 3.0 26 69
r 0.3975 4 0 tcp 1040 ------- 1 4.0 6.0 12 55
+ 0.3975 0 6 tcp 1040 ------- 1 4.0 6.0 12 55
- 0.3975 0 6 tcp 1040 ------- 1 4.0 6.0 12 55
+ 0.399578 5 0 rtProtoDV 7 ------- 0 5.1 0.1 -1 80
- 0.399578 5 0 rtProtoDV 7 ------- 0 5.1 0.1 -1 80
r 0.401875 6 0 ack 40 ------- 1 6.0 4.0 10 76
+ 0.401875 0 4 ack 40 ------- 1 6.0 4.0 10 76
- 0.401875 0 4 ack 40 ------- 1 6.0 4.0 10 76
+ 0.403438 1 0 cbr 210 ------- 2 1.0 3.0 31 81
- 0.403438 1 0 cbr 210 ------- 2 1.0 3.0 31 81
r 0.403594 1 0 cbr 210 ------- 2 1.0 3.0 29 75
+ 0.403594 0 3 cbr 210 ------- 2 1.0 3.0 29 75
- 0.403594 0 3 cbr 210 ------- 2 1.0 3.0 29 75
- 0.40375 4 0 tcp 1040 ------- 1 4.0 6.0 14 60
r 0.40375 0 3 cbr 210 ------- 2 1.0 3.0 27 71
r 0.4075 0 6 tcp 1040 ------- 1 4.0 6.0 11 54
+ 0.4075 6 0 ack 40 ------- 1 6.0 4.0 11 82
- 0.4075 6 0 ack 40 ------- 1 6.0 4.0 11 82
r 0.409687 5 0 rtProtoDV 7 ------- 0 5.1 0.1 -1 80
+ 0.41 1 0 cbr 210 ------- 2 1.0 3.0 32 83
- 0.41 1 0 cbr 210 ------- 2 1.0 3.0 32 83
r 0.410156 1 0 cbr 210 ------- 2 1.0 3.0 30 79
+ 0.410156 0 3 cbr 210 ------- 2 1.0 3.0 30 79
- 0.410156 0 3 cbr 210 ------- 2 1.0 3.0 30 79
r 0.410313 0 3 cbr 210 ------- 2 1.0 3.0 28 74
r 0.4125 0 4 ack 40 ------- 1 6.0 4.0 10 76
+ 0.4125 4 0 tcp 1040 ------- 1 4.0 6.0 21 84
+ 0.4125 4 0 tcp 1040 ------- 1 4.0 6.0 22 85
r 0.41375 4 0 tcp 1040 ------- 1 4.0 6.0 13 59
+ 0.41375 0 6 tcp 1040 ------- 1 4.0 6.0 13 59
- 0.41375 0 6 tcp 1040 ------- 1 4.0 6.0 13 59
+ 0.416563 1 0 cbr 210 ------- 2 1.0 3.0 33 86
- 0.416563 1 0 cbr 210 ------- 2 1.0 3.0 33 86
r 0.416719 1 0 cbr 210 ------- 2 1.0 3.0 31 81
+ 0.416719 0 3 cbr 210 ------- 2 1.0 3.0 31 81
- 0.416719 0 3 cbr 210 ------- 2 1.0 3.0 31 81
r 0.416875 0 3 cbr 210 ------- 2 1.0 3.0 29 75
r 0.418125 6 0 ack 40 ------- 1 6.0 4.0 11 82
+ 0.418125 0 4 ack 40 ------- 1 6.0 4.0 11 82
- 0.418125 0 4 ack 40 ------- 1 6.0 4.0 11 82
- 0.42 4 0 tcp 1040 ------- 1 4.0 6.0 15 66
+ 0.423125 1 0 cbr 210 ------- 2 1.0 3.0 34 87
- 0.423125 1 0 cbr 210 ------- 2 1.0 3.0 34 87
r 0.423281 1 0 cbr 210 ------- 2 1.0 3.0 32 83
+ 0.423281 0 3 cbr 210 ------- 2 1.0 3.0 32 83
- 0.423281 0 3 cbr 210 ------- 2 1.0 3.0 32 83
r 0.423438 0 3 cbr 210 ------- 2 1.0 3.0 30 79
r 0.42375 0 6 tcp 1040 ------- 1 4.0 6.0 12 55
+ 0.42375 6 0 ack 40 ------- 1 6.0 4.0 12 88
- 0.42375 6 0 ack 40 ------- 1 6.0 4.0 12 88
r 0.42875 0 4 ack 40 ------- 1 6.0 4.0 11 82
+ 0.42875 4 0 tcp 1040 ------- 1 4.0 6.0 23 89
+ 0.42875 4 0 tcp 1040 ------- 1 4.0 6.0 24 90
+ 0.429688 1 0 cbr 210 ------- 2 1.0 3.0 35 91
- 0.429688 1 0 cbr 210 ------- 2 1.0 3.0 35 91
r 0.429844 1 0 cbr 210 ------- 2 1.0 3.0 33 86
+ 0.429844 0 3 cbr 210 ------- 2 1.0 3.0 33 86
- 0.429844 0 3 cbr 210 ------- 2 1.0 3.0 33 86
r 0.43 4 0 tcp 1040 ------- 1 4.0 6.0 14 60
+ 0.43 0 6 tcp 1040 ------- 1 4.0 6.0 14 60
- 0.43 0 6 tcp 1040 ------- 1 4.0 6.0 14 60
r 0.43 0 3 cbr 210 ------- 2 1.0 3.0 31 81
r 0.434375 6 0 ack 40 ------- 1 6.0 4.0 12 88
+ 0.434375 0 4 ack 40 ------- 1 6.0 4.0 12 88
- 0.434375 0 4 ack 40 ------- 1 6.0 4.0 12 88
- 0.43625 4 0 tcp 1040 ------- 1 4.0 6.0 16 67
+ 0.43625 1 0 cbr 210 ------- 2 1.0 3.0 36 92
- 0.43625 1 0 cbr 210 ------- 2 1.0 3.0 36 92
r 0.436406 1 0 cbr 210 ------- 2 1.0 3.0 34 87
+ 0.436406 0 3 cbr 210 ------- 2 1.0 3.0 34 87
- 0.436406 0 3 cbr 210 ------- 2 1.0 3.0 34 87
r 0.436563 0 3 cbr 210 ------- 2 1.0 3.0 32 83
r 0.44 0 6 tcp 1040 ------- 1 4.0 6.0 13 59
+ 0.44 6 0 ack 40 ------- 1 6.0 4.0 13 93
- 0.44 6 0 ack 40 ------- 1 6.0 4.0 13 93
+ 0.442813 1 0 cbr 210 ------- 2 1.0 3.0 37 94
- 0.442813 1 0 cbr 210 ------- 2 1.0 3.0 37 94
r 0.442969 1 0 cbr 210 ------- 2 1.0 3.0 35 91
+ 0.442969 0 3 cbr 210 ------- 2 1.0 3.0 35 91
- 0.442969 0 3 cbr 210 ------- 2 1.0 3.0 35 91
r 0.443125 0 3 cbr 210 ------- 2 1.0 3.0 33 86
r 0.445 0 4 ack 40 ------- 1 6.0 4.0 12 88
+ 0.445 4 0 tcp 1040 ------- 1 4.0 6.0 25 95
+ 0.445 4 0 tcp 1040 ------- 1 4.0 6.0 26 96
r 0.44625 4 0 tcp 1040 ------- 1 4.0 6.0 15 66
+ 0.44625 0 6 tcp 1040 ------- 1 4.0 6.0 15 66
- 0.44625 0 6 tcp 1040 ------- 1 4.0 6.0 15 66
+ 0.449375 1 0 cbr 210 ------- 2 1.0 3.0 38 97
- 0.449375 1 0 cbr 210 ------- 2 1.0 3.0 38 97
r 0.449531 1 0 cbr 210 ------- 2 1.0 3.0 36 92
+ 0.449531 0 3 cbr 210 ------- 2 1.0 3.0 36 92
- 0.449531 0 3 cbr 210 ------- 2 1.0 3.0 36 92
r 0.449688 0 3 cbr 210 ------- 2 1.0 3.0 34 87
r 0.450625 6 0 ack 40 ------- 1 6.0 4.0 13 93
+ 0.450625 0 4 ack 40 ------- 1 6.0 4.0 13 93
- 0.450625 0 4 ack 40 ------- 1 6.0 4.0 13 93
- 0.4525 4 0 tcp 1040 ------- 1 4.0 6.0 17 72
+ 0.455938 1 0 cbr 210 ------- 2 1.0 3.0 39 98
- 0.455938 1 0 cbr 210 ------- 2 1.0 3.0 39 98
r 0.456094 1 0 cbr 210 ------- 2 1.0 3.0 37 94
+ 0.456094 0 3 cbr 210 ------- 2 1.0 3.0 37 94
- 0.456094 0 3 cbr 210 ------- 2 1.0 3.0 37 94
r 0.45625 0 6 tcp 1040 ------- 1 4.0 6.0 14 60
+ 0.45625 6 0 ack 40 ------- 1 6.0 4.0 14 99
- 0.45625 6 0 ack 40 ------- 1 6.0 4.0 14 99
r 0.45625 0 3 cbr 210 ------- 2 1.0 3.0 35 91
r 0.46125 0 4 ack 40 ------- 1 6.0 4.0 13 93
+ 0.46125 4 0 tcp 1040 ------- 1 4.0 6.0 27 100
+ 0.46125 4 0 tcp 1040 ------- 1 4.0 6.0 28 101
r 0.4625 4 0 tcp 1040 ------- 1 4.0 6.0 16 67
+ 0.4625 0 6 tcp 1040 ------- 1 4.0 6.0 16 67
- 0.4625 0 6 tcp 1040 ------- 1 4.0 6.0 16 67
+ 0.4625 1 0 cbr 210 ------- 2 1.0 3.0 40 102
- 0.4625 1 0 cbr 210 ------- 2 1.0 3.0 40 102
r 0.462656 1 0 cbr 210 ------- 2 1.0 3.0 38 97
+ 0.462656 0 3 cbr 210 ------- 2 1.0 3.0 38 97
- 0.462656 0 3 cbr 210 ------- 2 1.0 3.0 38 97
r 0.462813 0 3 cbr 210 ------- 2 1.0 3.0 36 92
r 0.466875 6 0 ack 40 ------- 1 6.0 4.0 14 99
+ 0.466875 0 4 ack 40 ------- 1 6.0 4.0 14 99
- 0.466875 0 4 ack 40 ------- 1 6.0 4.0 14 99
- 0.46875 4 0 tcp 1040 ------- 1 4.0 6.0 18 73
+ 0.469063 1 0 cbr 210 ------- 2 1.0 3.0 41 103
- 0.469063 1 0 cbr 210 ------- 2 1.0 3.0 41 103
r 0.469219 1 0 cbr 210 ------- 2 1.0 3.0 39 98
+ 0.469219 0 3 cbr 210 ------- 2 1.0 3.0 39 98
- 0.469219 0 3 cbr 210 ------- 2 1.0 3.0 39 98
r 0.469375 0 3 cbr 210 ------- 2 1.0 3.0 37 94
r 0.4725 0 6 tcp 1040 ------- 1 4.0 6.0 15 66
+ 0.4725 6 0 ack 40 ------- 1 6.0 4.0 15 104
- 0.4725 6 0 ack 40 ------- 1 6.0 4.0 15 104
+ 0.475625 1 0 cbr 210 ------- 2 1.0 3.0 42 105
- 0.475625 1 0 cbr 210 ------- 2 1.0 3.0 42 105
r 0.475781 1 0 cbr 210 ------- 2 1.0 3.0 40 102
+ 0.475781 0 3 cbr 210 ------- 2 1.0 3.0 40 102
- 0.475781 0 3 cbr 210 ------- 2 1.0 3.0 40 102
r 0.475938 0 3 cbr 210 ------- 2 1.0 3.0 38 97
r 0.4775 0 4 ack 40 ------- 1 6.0 4.0 14 99
+ 0.4775 4 0 tcp 1040 ------- 1 4.0 6.0 29 106
+ 0.4775 4 0 tcp 1040 ------- 1 4.0 6.0 30 107
r 0.47875 4 0 tcp 1040 ------- 1 4.0 6.0 17 72
+ 0.47875 0 6 tcp 1040 ------- 1 4.0 6.0 17 72
- 0.47875 0 6 tcp 1040 ------- 1 4.0 6.0 17 72
+ 0.482188 1 0 cbr 210 ------- 2 1.0 3.0 43 108
- 0.482188 1 0 cbr 210 ------- 2 1.0 3.0 43 108
r 0.482344 1 0 cbr 210 ------- 2 1.0 3.0 41 103
+ 0.482344 0 3 cbr 210 ------- 2 1.0 3.0 41 103
- 0.482344 0 3 cbr 210 ------- 2 1.0 3.0 41 103
r 0.4825 0 3 cbr 210 ------- 2 1.0 3.0 39 98
r 0.483125 6 0 ack 40 ------- 1 6.0 4.0 15 104
+ 0.483125 0 4 ack 40 ------- 1 6.0 4.0 15 104
- 0.483125 0 4 ack 40 ------- 1 6.0 4.0 15 104
- 0.485 4 0 tcp 1040 ------- 1 4.0 6.0 19 77
r 0.48875 0 6 tcp 1040 ------- 1 4.0 6.0 16 67
+ 0.48875 6 0 ack 40 ------- 1 6.0 4.0 16 109
- 0.48875 6 0 ack 40 ------- 1 6.0 4.0 16 109
+ 0.48875 1 0 cbr 210 ------- 2 1.0 3.0 44 110
- 0.48875 1 0 cbr 210 ------- 2 1.0 3.0 44 110
r 0.488906 1 0 cbr 210 ------- 2 1.0 3.0 42 105
+ 0.488906 0 3 cbr 210 ------- 2 1.0 3.0 42 105
- 0.488906 0 3 cbr 210 ------- 2 1.0 3.0 42 105
r 0.489063 0 3 cbr 210 ------- 2 1.0 3.0 40 102
r 0.49375 0 4 ack 40 ------- 1 6.0 4.0 15 104
+ 0.49375 4 0 tcp 1040 ------- 1 4.0 6.0 31 111
+ 0.49375 4 0 tcp 1040 ------- 1 4.0 6.0 32 112
r 0.495 4 0 tcp 1040 ------- 1 4.0 6.0 18 73
+ 0.495 0 6 tcp 1040 ------- 1 4.0 6.0 18 73
- 0.495 0 6 tcp 1040 ------- 1 4.0 6.0 18 73
+ 0.495313 1 0 cbr 210 ------- 2 1.0 3.0 45 113
- 0.495313 1 0 cbr 210 ------- 2 1.0 3.0 45 113
r 0.495469 1 0 cbr 210 ------- 2 1.0 3.0 43 108
+ 0.495469 0 3 cbr 210 ------- 2 1.0 3.0 43 108
- 0.495469 0 3 cbr 210 ------- 2 1.0 3.0 43 108
r 0.495625 0 3 cbr 210 ------- 2 1.0 3.0 41 103
r 0.499375 6 0 ack 40 ------- 1 6.0 4.0 16 109
+ 0.499375 0 4 ack 40 ------- 1 6.0 4.0 16 109
- 0.499375 0 4 ack 40 ------- 1 6.0 4.0 16 109
- 0.50125 4 0 tcp 1040 ------- 1 4.0 6.0 20 78
+ 0.501875 1 0 cbr 210 ------- 2 1.0 3.0 46 114
- 0.501875 1 0 cbr 210 ------- 2 1.0 3.0 46 114
r 0.502031 1 0 cbr 210 ------- 2 1.0 3.0 44 110
+ 0.502031 0 3 cbr 210 ------- 2 1.0 3.0 44 110
- 0.502031 0 3 cbr 210 ------- 2 1.0 3.0 44 110
r 0.502188 0 3 cbr 210 ------- 2 1.0 3.0 42 105
r 0.505 0 6 tcp 1040 ------- 1 4.0 6.0 17 72
+ 0.505 6 0 ack 40 ------- 1 6.0 4.0 17 115
- 0.505 6 0 ack 40 ------- 1 6.0 4.0 17 115
+ 0.508438 1 0 cbr 210 ------- 2 1.0 3.0 47 116
- 0.508438 1 0 cbr 210 ------- 2 1.0 3.0 47 116
r 0.508594 1 0 cbr 210 ------- 2 1.0 3.0 45 113
+ 0.508594 0 3 cbr 210 ------- 2 1.0 3.0 45 113
- 0.508594 0 3 cbr 210 ------- 2 1.0 3.0 45 113
r 0.50875 0 3 cbr 210 ------- 2 1.0 3.0 43 108
r 0.51 0 4 ack 40 ------- 1 6.0 4.0 16 109
r 0.51125 4 0 tcp 1040 ------- 1 4.0 6.0 19 77
+ 0.51125 0 6 tcp 1040 ------- 1 4.0 6.0 19 77
- 0.51125 0 6 tcp 1040 ------- 1 4.0 6.0 19 77
+ 0.515 1 0 cbr 210 ------- 2 1.0 3.0 48 117
- 0.515 1 0 cbr 210 ------- 2 1.0 3.0 48 117
r 0.515156 1 0 cbr 210 ------- 2 1.0 3.0 46 114
+ 0.515156 0 3 cbr 210 ------- 2 1.0 3.0 46 114
- 0.515156 0 3 cbr 210 ------- 2 1.0 3.0 46 114
r 0.515313 0 3 cbr 210 ------- 2 1.0 3.0 44 110
r 0.515625 6 0 ack 40 ------- 1 6.0 4.0 17 115
+ 0.515625 0 4 ack 40 ------- 1 6.0 4.0 17 115
- 0.515625 0 4 ack 40 ------- 1 6.0 4.0 17 115
- 0.5175 4 0 tcp 1040 ------- 1 4.0 6.0 21 84
r 0.52125 0 6 tcp 1040 ------- 1 4.0 6.0 18 73
+ 0.52125 6 0 ack 40 ------- 1 6.0 4.0 18 118
- 0.52125 6 0 ack 40 ------- 1 6.0 4.0 18 118
+ 0.521563 1 0 cbr 210 ------- 2 1.0 3.0 49 119
- 0.521563 1 0 cbr 210 ------- 2 1.0 3.0 49 119
r 0.521719 1 0 cbr 210 ------- 2 1.0 3.0 47 116
+ 0.521719 0 3 cbr 210 ------- 2 1.0 3.0 47 116
- 0.521719 0 3 cbr 210 ------- 2 1.0 3.0 47 116
r 0.521875 0 3 cbr 210 ------- 2 1.0 3.0 45 113
r 0.52625 0 4 ack 40 ------- 1 6.0 4.0 17 115
r 0.5275 4 0 tcp 1040 ------- 1 4.0 6.0 20 78
+ 0.5275 0 6 tcp 1040 ------- 1 4.0 6.0 20 78
- 0.5275 0 6 tcp 1040 ------- 1 4.0 6.0 20 78
+ 0.528125 1 0 cbr 210 ------- 2 1.0 3.0 50 120
- 0.528125 1 0 cbr 210 ------- 2 1.0 3.0 50 120
r 0.528281 1 0 cbr 210 ------- 2 1.0 3.0 48 117
+ 0.528281 0 3 cbr 210 ------- 2 1.0 3.0 48 117
- 0.528281 0 3 cbr 210 ------- 2 1.0 3.0 48 117
r 0.528438 0 3 cbr 210 ------- 2 1.0 3.0 46 114
r 0.531875 6 0 ack 40 ------- 1 6.0 4.0 18 118
+ 0.531875 0 4 ack 40 ------- 1 6.0 4.0 18 118
- 0.531875 0 4 ack 40 ------- 1 6.0 4.0 18 118
- 0.53375 4 0 tcp 1040 ------- 1 4.0 6.0 22 85
+ 0.534688 1 0 cbr 210 ------- 2 1.0 3.0 51 121
- 0.534688 1 0 cbr 210 ------- 2 1.0 3.0 51 121
r 0.534844 1 0 cbr 210 ------- 2 1.0 3.0 49 119
+ 0.534844 0 3 cbr 210 ------- 2 1.0 3.0 49 119
- 0.534844 0 3 cbr 210 ------- 2 1.0 3.0 49 119
r 0.535 0 3 cbr 210 ------- 2 1.0 3.0 47 116
r 0.5375 0 6 tcp 1040 ------- 1 4.0 6.0 19 77
+ 0.5375 6 0 ack 40 ------- 1 6.0 4.0 19 122
- 0.5375 6 0 ack 40 ------- 1 6.0 4.0 19 122
+ 0.54125 1 0 cbr 210 ------- 2 1.0 3.0 52 123
- 0.54125 1 0 cbr 210 ------- 2 1.0 3.0 52 123
r 0.541406 1 0 cbr 210 ------- 2 1.0 3.0 50 120
+ 0.541406 0 3 cbr 210 ------- 2 1.0 3.0 50 120
- 0.541406 0 3 cbr 210 ------- 2 1.0 3.0 50 120
r 0.541563 0 3 cbr 210 ------- 2 1.0 3.0 48 117
r 0.5425 0 4 ack 40 ------- 1 6.0 4.0 18 118
r 0.54375 4 0 tcp 1040 ------- 1 4.0 6.0 21 84
+ 0.54375 0 6 tcp 1040 ------- 1 4.0 6.0 21 84
- 0.54375 0 6 tcp 1040 ------- 1 4.0 6.0 21 84
+ 0.547813 1 0 cbr 210 ------- 2 1.0 3.0 53 124
- 0.547813 1 0 cbr 210 ------- 2 1.0 3.0 53 124
r 0.547969 1 0 cbr 210 ------- 2 1.0 3.0 51 121
+ 0.547969 0 3 cbr 210 ------- 2 1.0 3.0 51 121
- 0.547969 0 3 cbr 210 ------- 2 1.0 3.0 51 121
r 0.548125 6 0 ack 40 ------- 1 6.0 4.0 19 122
+ 0.548125 0 4 ack 40 ------- 1 6.0 4.0 19 122
- 0.548125 0 4 ack 40 ------- 1 6.0 4.0 19 122
r 0.548125 0 3 cbr 210 ------- 2 1.0 3.0 49 119
- 0.55 4 0 tcp 1040 ------- 1 4.0 6.0 23 89
r 0.55375 0 6 tcp 1040 ------- 1 4.0 6.0 20 78