V -t * -v 1.0a5 -a 0
A -t * -n 1 -p 0 -o 0x7fffffff -c 30 -a 1
A -t * -h 1 -m 1073741823 -s 0
c -t * -i 1 -n Red
n -t * -a 4 -s 4 -S UP -v circle -c black -i black
n -t * -a 0 -s 0 -S UP -v circle -c black -i black
n -t * -a 5 -s 5 -S UP -v circle -c black -i black
n -t * -a 1 -s 1 -S UP -v circle -c black -i black
n -t * -a 2 -s 2 -S UP -v circle -c black -i black
n -t * -a 3 -s 3 -S UP -v circle -c black -i black
l -t * -s 0 -d 1 -S UP -r 1000000 -D 0.01 -c black -o right
X -t * -n 6 -r 0.5Mb -D 10ms -o left
L -t * -s 6 -d 1 -o up
L -t * -s 6 -d 2 -o down
L -t * -s 6 -d 3 -o up
L -t * -s 6 -d 4 -o down
L -t * -s 6 -d 5 -o up
+ -t 0.2 -s 0 -d 1 -p tcp -e 40 -c 1 -i 0 -a 1 -x {0.0 5.0 0 ------- null}
- -t 0.2 -s 0 -d 1 -p tcp -e 40 -c 1 -i 0 -a 1 -x {0.0 5.0 0 ------- null}
h -t 0.2 -s 0 -d 1 -p tcp -e 40 -c 1 -i 0 -a 1 -x {0.0 5.0 -1 ------- null}
r -t 0.21032 -s 0 -d 1 -p tcp -e 40 -c 1 -i 0 -a 1 -x {0.0 5.0 0 ------- null}
h -t 0.21032 -s 1 -d 6 -p tcp -e 40 -c 1 -i 0 -a 1 -x {0.0 5.0 0 ------- null}
+ -t 0.22032 -s 1 -d 6 -p tcp -e 40 -c 1 -i 0 -a 1 -x {0.0 5.0 0 ------- null}
- -t 0.22032 -s 1 -d 6 -p tcp -e 40 -c 1 -i 0 -a 1 -x {0.0 5.0 0 ------- null}
h -t 0.22032 -s 1 -d 6 -p tcp -e 40 -c 1 -i 0 -a 1 -x {0.0 5.0 -1 ------- null}
d -t 0.220324 -s 4 -d 6 -p tcp -e 40 -c 1 -i 0 -a 1 -x {0.0 5.0 0 ------- null}
d -t 0.220324 -s 3 -d 6 -p tcp -e 40 -c 1 -i 0 -a 1 -x {0.0 5.0 0 ------- null}
d -t 0.220324 -s 2 -d 6 -p tcp -e 40 -c 1 -i 0 -a 1 -x {0.0 5.0 0 ------- null}
r -t 0.230324 -s 6 -d 5 -p tcp -e 40 -c 1 -i 0 -a 1 -x {0.0 5.0 0 ------- null}
h -t 0.230324 -s 5 -d 6 -p ack -e 40 -c 1 -i 1 -a 1 -x {5.0 0.0 0 ------- null}
+ -t 0.240324 -s 5 -d 6 -p ack -e 40 -c 1 -i 1 -a 1 -x {5.0 0.0 0 ------- null}
- -t 0.240324 -s 5 -d 6 -p ack -e 40 -c 1 -i 1 -a 1 -x {5.0 0.0 0 ------- null}
h -t 0.240324 -s 5 -d 6 -p ack -e 40 -c 1 -i 1 -a 1 -x {5.0 0.0 -1 ------- null}
d -t 0.240328 -s 4 -d 6 -p ack -e 40 -c 1 -i 1 -a 1 -x {5.0 0.0 0 ------- null}
d -t 0.240328 -s 3 -d 6 -p ack -e 40 -c 1 -i 1 -a 1 -x {5.0 0.0 0 ------- null}
d -t 0.240328 -s 2 -d 6 -p ack -e 40 -c 1 -i 1 -a 1 -x {5.0 0.0 0 ------- null}
r -t 0.250328 -s 6 -d 1 -p ack -e 40 -c 1 -i 1 -a 1 -x {5.0 0.0 0 ------- null}
+ -t 0.250328 -s 1 -d 0 -p ack -e 40 -c 1 -i 1 -a 1 -x {5.0 0.0 0 ------- null}
- -t 0.250328 -s 1 -d 0 -p ack -e 40 -c 1 -i 1 -a 1 -x {5.0 0.0 0 ------- null}
h -t 0.250328 -s 1 -d 0 -p ack -e 40 -c 1 -i 1 -a 1 -x {5.0 0.0 -1 ------- null}
r -t 0.260648 -s 1 -d 0 -p ack -e 40 -c 1 -i 1 -a 1 -x {5.0 0.0 0 ------- null}
+ -t 0.260648 -s 0 -d 1 -p tcp -e 1040 -c 1 -i 2 -a 1 -x {0.0 5.0 1 ------- null}
- -t 0.260648 -s 0 -d 1 -p tcp -e 1040 -c 1 -i 2 -a 1 -x {0.0 5.0 1 ------- null}
h -t 0.260648 -s 0 -d 1 -p tcp -e 1040 -c 1 -i 2 -a 1 -x {0.0 5.0 -1 ------- null}
+ -t 0.260648 -s 0 -d 1 -p tcp -e 1040 -c 1 -i 3 -a 1 -x {0.0 5.0 2 ------- null}
- -t 0.268968 -s 0 -d 1 -p tcp -e 1040 -c 1 -i 3 -a 1 -x {0.0 5.0 2 ------- null}
h -t 0.268968 -s 0 -d 1 -p tcp -e 1040 -c 1 -i 3 -a 1 -x {0.0 5.0 -1 ------- null}
r -t 0.278968 -s 0 -d 1 -p tcp -e 1040 -c 1 -i 2 -a 1 -x {0.0 5.0 1 ------- null}
h -t 0.278968 -s 1 -d 6 -p tcp -e 1040 -c 1 -i 2 -a 1 -x {0.0 5.0 1 ------- null}
r -t 0.287288 -s 0 -d 1 -p tcp -e 1040 -c 1 -i 3 -a 1 -x {0.0 5.0 2 ------- null}
h -t 0.287288 -s 1 -d 6 -p tcp -e 1040 -c 1 -i 3 -a 1 -x {0.0 5.0 2 ------- null}
+ -t 0.288968 -s 1 -d 6 -p tcp -e 1040 -c 1 -i 2 -a 1 -x {0.0 5.0 1 ------- null}
- -t 0.288968 -s 1 -d 6 -p tcp -e 1040 -c 1 -i 2 -a 1 -x {0.0 5.0 1 ------- null}
h -t 0.288968 -s 1 -d 6 -p tcp -e 1040 -c 1 -i 2 -a 1 -x {0.0 5.0 -1 ------- null}
d -t 0.288972 -s 4 -d 6 -p tcp -e 1040 -c 1 -i 2 -a 1 -x {0.0 5.0 1 ------- null}
d -t 0.288972 -s 3 -d 6 -p tcp -e 1040 -c 1 -i 2 -a 1 -x {0.0 5.0 1 ------- null}
d -t 0.288972 -s 2 -d 6 -p tcp -e 1040 -c 1 -i 2 -a 1 -x {0.0 5.0 1 ------- null}
+ -t 0.297288 -s 1 -d 6 -p tcp -e 1040 -c 1 -i 3 -a 1 -x {0.0 5.0 2 ------- null}
- -t 0.297288 -s 1 -d 6 -p tcp -e 1040 -c 1 -i 3 -a 1 -x {0.0 5.0 2 ------- null}
h -t 0.297288 -s 1 -d 6 -p tcp -e 1040 -c 1 -i 3 -a 1 -x {0.0 5.0 -1 ------- null}
d -t 0.297292 -s 4 -d 6 -p tcp -e 1040 -c 1 -i 3 -a 1 -x {0.0 5.0 2 ------- null}
d -t 0.297292 -s 3 -d 6 -p tcp -e 1040 -c 1 -i 3 -a 1 -x {0.0 5.0 2 ------- null}
d -t 0.297292 -s 2 -d 6 -p tcp -e 1040 -c 1 -i 3 -a 1 -x {0.0 5.0 2 ------- null}
r -t 0.298972 -s 6 -d 5 -p tcp -e 1040 -c 1 -i 2 -a 1 -x {0.0 5.0 1 ------- null}
h -t 0.298972 -s 5 -d 6 -p ack -e 40 -c 1 -i 4 -a 1 -x {5.0 0.0 1 ------- null}
r -t 0.307292 -s 6 -d 5 -p tcp -e 1040 -c 1 -i 3 -a 1 -x {0.0 5.0 2 ------- null}
h -t 0.307292 -s 5 -d 6 -p ack -e 40 -c 1 -i 5 -a 1 -x {5.0 0.0 2 ------- null}
+ -t 0.308972 -s 5 -d 6 -p ack -e 40 -c 1 -i 4 -a 1 -x {5.0 0.0 1 ------- null}
- -t 0.308972 -s 5 -d 6 -p ack -e 40 -c 1 -i 4 -a 1 -x {5.0 0.0 1 ------- null}
h -t 0.308972 -s 5 -d 6 -p ack -e 40 -c 1 -i 4 -a 1 -x {5.0 0.0 -1 ------- null}
d -t 0.308976 -s 4 -d 6 -p ack -e 40 -c 1 -i 4 -a 1 -x {5.0 0.0 1 ------- null}
d -t 0.308976 -s 3 -d 6 -p ack -e 40 -c 1 -i 4 -a 1 -x {5.0 0.0 1 ------- null}
d -t 0.308976 -s 2 -d 6 -p ack -e 40 -c 1 -i 4 -a 1 -x {5.0 0.0 1 ------- null}
+ -t 0.317292 -s 5 -d 6 -p ack -e 40 -c 1 -i 5 -a 1 -x {5.0 0.0 2 ------- null}
- -t 0.317292 -s 5 -d 6 -p ack -e 40 -c 1 -i 5 -a 1 -x {5.0 0.0 2 ------- null}
h -t 0.317292 -s 5 -d 6 -p ack -e 40 -c 1 -i 5 -a 1 -x {5.0 0.0 -1 ------- null}
d -t 0.317296 -s 4 -d 6 -p ack -e 40 -c 1 -i 5 -a 1 -x {5.0 0.0 2 ------- null}
d -t 0.317296 -s 3 -d 6 -p ack -e 40 -c 1 -i 5 -a 1 -x {5.0 0.0 2 ------- null}
d -t 0.317296 -s 2 -d 6 -p ack -e 40 -c 1 -i 5 -a 1 -x {5.0 0.0 2 ------- null}
r -t 0.318976 -s 6 -d 1 -p ack -e 40 -c 1 -i 4 -a 1 -x {5.0 0.0 1 ------- null}
+ -t 0.318976 -s 1 -d 0 -p ack -e 40 -c 1 -i 4 -a 1 -x {5.0 0.0 1 ------- null}
- -t 0.318976 -s 1 -d 0 -p ack -e 40 -c 1 -i 4 -a 1 -x {5.0 0.0 1 ------- null}
h -t 0.318976 -s 1 -d 0 -p ack -e 40 -c 1 -i 4 -a 1 -x {5.0 0.0 -1 ------- null}
r -t 0.327296 -s 6 -d 1 -p ack -e 40 -c 1 -i 5 -a 1 -x {5.0 0.0 2 ------- null}
+ -t 0.327296 -s 1 -d 0 -p ack -e 40 -c 1 -i 5 -a 1 -x {5.0 0.0 2 ------- null}
- -t 0.327296 -s 1 -d 0 -p ack -e 40 -c 1 -i 5 -a 1 -x {5.0 0.0 2 ------- null}
h -t 0.327296 -s 1 -d 0 -p ack -e 40 -c 1 -i 5 -a 1 -x {5.0 0.0 -1 ------- null}
r -t 0.329296 -s 1 -d 0 -p ack -e 40 -c 1 -i 4 -a 1 -x {5.0 0.0 1 ------- null}
+ -t 0.329296 -s 0 -d 1 -p tcp -e 1040 -c 1 -i 6 -a 1 -x {0.0 5.0 3 ------- null}
- -t 0.329296 -s 0 -d 1 -p tcp -e 1040 -c 1 -i 6 -a 1 -x {0.0 5.0 3 ------- null}
h -t 0.329296 -s 0 -d 1 -p tcp -e 1040 -c 1 -i 6 -a 1 -x {0.0 5.0 -1 ------- null}
+ -t 0.329296 -s 0 -d 1 -p tcp -e 1040 -c 1 -i 7 -a 1 -x {0.0 5.0 4 ------- null}
r -t 0.337616 -s 1 -d 0 -p ack -e 40 -c 1 -i 5 -a 1 -x {5.0 0.0 2 ------- null}
+ -t 0.337616 -s 0 -d 1 -p tcp -e 1040 -c 1 -i 8 -a 1 -x {0.0 5.0 5 ------- null}
- -t 0.337616 -s 0 -d 1 -p tcp -e 1040 -c 1 -i 7 -a 1 -x {0.0 5.0 4 ------- null}
h -t 0.337616 -s 0 -d 1 -p tcp -e 1040 -c 1 -i 7 -a 1 -x {0.0 5.0 -1 ------- null}
- -t 0.345936 -s 0 -d 1 -p tcp -e 1040 -c 1 -i 8 -a 1 -x {0.0 5.0 5 ------- null}
h -t 0.345936 -s 0 -d 1 -p tcp -e 1040 -c 1 -i 8 -a 1 -x {0.0 5.0 -1 ------- null}
r -t 0.347616 -s 0 -d 1 -p tcp -e 1040 -c 1 -i 6 -a 1 -x {0.0 5.0 3 ------- null}
h -t 0.347616 -s 1 -d 6 -p tcp -e 1040 -c 1 -i 6 -a 1 -x {0.0 5.0 3 ------- null}
+ -t 0.35 -s 0 -d 1 -p tcp -e 1040 -c 1 -i 9 -a 1 -x {0.0 5.0 6 ------- null}
- -t 0.354256 -s 0 -d 1 -p tcp -e 1040 -c 1 -i 9 -a 1 -x {0.0 5.0 6 ------- null}
h -t 0.354256 -s 0 -d 1 -p tcp -e 1040 -c 1 -i 9 -a 1 -x {0.0 5.0 -1 ------- null}
r -t 0.355936 -s 0 -d 1 -p tcp -e 1040 -c 1 -i 7 -a 1 -x {0.0 5.0 4 ------- null}
h -t 0.355936 -s 1 -d 6 -p tcp -e 1040 -c 1 -i 7 -a 1 -x {0.0 5.0 4 ------- null}
+ -t 0.357616 -s 1 -d 6 -p tcp -e 1040 -c 1 -i 6 -a 1 -x {0.0 5.0 3 ------- null}
- -t 0.357616 -s 1 -d 6 -p tcp -e 1040 -c 1 -i 6 -a 1 -x {0.0 5.0 3 ------- null}
h -t 0.357616 -s 1 -d 6 -p tcp -e 1040 -c 1 -i 6 -a 1 -x {0.0 5.0 -1 ------- null}
d -t 0.35762 -s 4 -d 6 -p tcp -e 1040 -c 1 -i 6 -a 1 -x {0.0 5.0 3 ------- null}
d -t 0.35762 -s 3 -d 6 -p tcp -e 1040 -c 1 -i 6 -a 1 -x {0.0 5.0 3 ------- null}
d -t 0.35762 -s 2 -d 6 -p tcp -e 1040 -c 1 -i 6 -a 1 -x {0.0 5.0 3 ------- null}
r -t 0.364256 -s 0 -d 1 -p tcp -e 1040 -c 1 -i 8 -a 1 -x {0.0 5.0 5 ------- null}
h -t 0.364256 -s 1 -d 6 -p tcp -e 1040 -c 1 -i 8 -a 1 -x {0.0 5.0 5 ------- null}
+ -t 0.365936 -s 1 -d 6 -p tcp -e 1040 -c 1 -i 7 -a 1 -x {0.0 5.0 4 ------- null}
- -t 0.365936 -s 1 -d 6 -p tcp -e 1040 -c 1 -i 7 -a 1 -x {0.0 5.0 4 ------- null}
h -t 0.365936 -s 1 -d 6 -p tcp -e 1040 -c 1 -i 7 -a 1 -x {0.0 5.0 -1 ------- null}
d -t 0.36594 -s 4 -d 6 -p tcp -e 1040 -c 1 -i 7 -a 1 -x {0.0 5.0 4 ------- null}
d -t 0.36594 -s 3 -d 6 -p tcp -e 1040 -c 1 -i 7 -a 1 -x {0.0 5.0 4 ------- null}
d -t 0.36594 -s 2 -d 6 -p tcp -e 1040 -c 1 -i 7 -a 1 -x {0.0 5.0 4 ------- null}
r -t 0.36762 -s 6 -d 5 -p tcp -e 1040 -c 1 -i 6 -a 1 -x {0.0 5.0 3 ------- null}
h -t 0.36762 -s 5 -d 6 -p ack -e 40 -c 1 -i 10 -a 1 -x {5.0 0.0 3 ------- null}
r -t 0.372576 -s 0 -d 1 -p tcp -e 1040 -c 1 -i 9 -a 1 -x {0.0 5.0 6 ------- null}
h -t 0.372576 -s 1 -d 6 -p tcp -e 1040 -c 1 -i 9 -a 1 -x {0.0 5.0 6 ------- null}
+ -t 0.374256 -s 1 -d 6 -p tcp -e 1040 -c 1 -i 8 -a 1 -x {0.0 5.0 5 ------- null}
- -t 0.374256 -s 1 -d 6 -p tcp -e 1040 -c 1 -i 8 -a 1 -x {0.0 5.0 5 ------- null}
h -t 0.374256 -s 1 -d 6 -p tcp -e 1040 -c 1 -i 8 -a 1 -x {0.0 5.0 -1 ------- null}
d -t 0.37426 -s 4 -d 6 -p tcp -e 1040 -c 1 -i 8 -a 1 -x {0.0 5.0 5 ------- null}
d -t 0.37426 -s 3 -d 6 -p tcp -e 1040 -c 1 -i 8 -a 1 -x {0.0 5.0 5 ------- null}
d -t 0.37426 -s 2 -d 6 -p tcp -e 1040 -c 1 -i 8 -a 1 -x {0.0 5.0 5 ------- null}
r -t 0.37594 -s 6 -d 5 -p tcp -e 1040 -c 1 -i 7 -a 1 -x {0.0 5.0 4 ------- null}
h -t 0.37594 -s 5 -d 6 -p ack -e 40 -c 1 -i 11 -a 1 -x {5.0 0.0 4 ------- null}
+ -t 0.37762 -s 5 -d 6 -p ack -e 40 -c 1 -i 10 -a 1 -x {5.0 0.0 3 ------- null}
- -t 0.37762 -s 5 -d 6 -p ack -e 40 -c 1 -i 10 -a 1 -x {5.0 0.0 3 ------- null}
h -t 0.37762 -s 5 -d 6 -p ack -e 40 -c 1 -i 10 -a 1 -x {5.0 0.0 -1 ------- null}
d -t 0.377624 -s 4 -d 6 -p ack -e 40 -c 1 -i 10 -a 1 -x {5.0 0.0 3 ------- null}
d -t 0.377624 -s 3 -d 6 -p ack -e 40 -c 1 -i 10 -a 1 -x {5.0 0.0 3 ------- null}
d -t 0.377624 -s 2 -d 6 -p ack -e 40 -c 1 -i 10 -a 1 -x {5.0 0.0 3 ------- null}
+ -t 0.382576 -s 1 -d 6 -p tcp -e 1040 -c 1 -i 9 -a 1 -x {0.0 5.0 6 ------- null}
- -t 0.382576 -s 1 -d 6 -p tcp -e 1040 -c 1 -i 9 -a 1 -x {0.0 5.0 6 ------- null}
h -t 0.382576 -s 1 -d 6 -p tcp -e 1040 -c 1 -i 9 -a 1 -x {0.0 5.0 -1 ------- null}
d -t 0.38258 -s 4 -d 6 -p tcp -e 1040 -c 1 -i 9 -a 1 -x {0.0 5.0 6 ------- null}
d -t 0.38258 -s 3 -d 6 -p tcp -e 1040 -c 1 -i 9 -a 1 -x {0.0 5.0 6 ------- null}
d -t 0.38258 -s 2 -d 6 -p tcp -e 1040 -c 1 -i 9 -a 1 -x {0.0 5.0 6 ------- null}
r -t 0.38426 -s 6 -d 5 -p tcp -e 1040 -c 1 -i 8 -a 1 -x {0.0 5.0 5 ------- null}
h -t 0.38426 -s 5 -d 6 -p ack -e 40 -c 1 -i 12 -a 1 -x {5.0 0.0 5 ------- null}
+ -t 0.38594 -s 5 -d 6 -p ack -e 40 -c 1 -i 11 -a 1 -x {5.0 0.0 4 ------- null}
- -t 0.38594 -s 5 -d 6 -p ack -e 40 -c 1 -i 11 -a 1 -x {5.0 0.0 4 ------- null}
h -t 0.38594 -s 5 -d 6 -p ack -e 40 -c 1 -i 11 -a 1 -x {5.0 0.0 -1 ------- null}
d -t 0.385944 -s 4 -d 6 -p ack -e 40 -c 1 -i 11 -a 1 -x {5.0 0.0 4 ------- null}
d -t 0.385944 -s 3 -d 6 -p ack -e 40 -c 1 -i 11 -a 1 -x {5.0 0.0 4 ------- null}
d -t 0.385944 -s 2 -d 6 -p ack -e 40 -c 1 -i 11 -a 1 -x {5.0 0.0 4 ------- null}
r -t 0.387624 -s 6 -d 1 -p ack -e 40 -c 1 -i 10 -a 1 -x {5.0 0.0 3 ------- null}
+ -t 0.387624 -s 1 -d 0 -p ack -e 40 -c 1 -i 10 -a 1 -x {5.0 0.0 3 ------- null}
- -t 0.387624 -s 1 -d 0 -p ack -e 40 -c 1 -i 10 -a 1 -x {5.0 0.0 3 ------- null}
h -t 0.387624 -s 1 -d 0 -p ack -e 40 -c 1 -i 10 -a 1 -x {5.0 0.0 -1 ------- null}
r -t 0.39258 -s 6 -d 5 -p tcp -e 1040 -c 1 -i 9 -a 1 -x {0.0 5.0 6 ------- null}
h -t 0.39258 -s 5 -d 6 -p ack -e 40 -c 1 -i 13 -a 1 -x {5.0 0.0 6 ------- null}
+ -t 0.39426 -s 5 -d 6 -p ack -e 40 -c 1 -i 12 -a 1 -x {5.0 0.0 5 ------- null}
- -t 0.39426 -s 5 -d 6 -p ack -e 40 -c 1 -i 12 -a 1 -x {5.0 0.0 5 ------- null}
h -t 0.39426 -s 5 -d 6 -p ack -e 40 -c 1 -i 12 -a 1 -x {5.0 0.0 -1 ------- null}
d -t 0.394264 -s 4 -d 6 -p ack -e 40 -c 1 -i 12 -a 1 -x {5.0 0.0 5 ------- null}
d -t 0.394264 -s 3 -d 6 -p ack -e 40 -c 1 -i 12 -a 1 -x {5.0 0.0 5 ------- null}
d -t 0.394264 -s 2 -d 6 -p ack -e 40 -c 1 -i 12 -a 1 -x {5.0 0.0 5 ------- null}
r -t 0.395944 -s 6 -d 1 -p ack -e 40 -c 1 -i 11 -a 1 -x {5.0 0.0 4 ------- null}
+ -t 0.395944 -s 1 -d 0 -p ack -e 40 -c 1 -i 11 -a 1 -x {5.0 0.0 4 ------- null}
- -t 0.395944 -s 1 -d 0 -p ack -e 40 -c 1 -i 11 -a 1 -x {5.0 0.0 4 ------- null}
h -t 0.395944 -s 1 -d 0 -p ack -e 40 -c 1 -i 11 -a 1 -x {5.0 0.0 -1 ------- null}
r -t 0.397944 -s 1 -d 0 -p ack -e 40 -c 1 -i 10 -a 1 -x {5.0 0.0 3 ------- null}
+ -t 0.397944 -s 0 -d 1 -p tcp -e 1040 -c 1 -i 14 -a 1 -x {0.0 5.0 7 ------- null}
- -t 0.397944 -s 0 -d 1 -p tcp -e 1040 -c 1 -i 14 -a 1 -x {0.0 5.0 7 ------- null}
h -t 0.397944 -s 0 -d 1 -p tcp -e 1040 -c 1 -i 14 -a 1 -x {0.0 5.0 -1 ------- null}
+ -t 0.40258 -s 5 -d 6 -p ack -e 40 -c 1 -i 13 -a 1 -x {5.0 0.0 6 ------- null}
- -t 0.40258 -s 5 -d 6 -p ack -e 40 -c 1 -i 13 -a 1 -x {5.0 0.0 6 ------- null}
h -t 0.40258 -s 5 -d 6 -p ack -e 40 -c 1 -i 13 -a 1 -x {5.0 0.0 -1 ------- null}
d -t 0.402584 -s 4 -d 6 -p ack -e 40 -c 1 -i 13 -a 1 -x {5.0 0.0 6 ------- null}
d -t 0.402584 -s 3 -d 6 -p ack -e 40 -c 1 -i 13 -a 1 -x {5.0 0.0 6 ------- null}
d -t 0.402584 -s 2 -d 6 -p ack -e 40 -c 1 -i 13 -a 1 -x {5.0 0.0 6 ------- null}
r -t 0.404264 -s 6 -d 1 -p ack -e 40 -c 1 -i 12 -a 1 -x {5.0 0.0 5 ------- null}
+ -t 0.404264 -s 1 -d 0 -p ack -e 40 -c 1 -i 12 -a 1 -x {5.0 0.0 5 ------- null}
- -t 0.404264 -s 1 -d 0 -p ack -e 40 -c 1 -i 12 -a 1 -x {5.0 0.0 5 ------- null}
h -t 0.404264 -s 1 -d 0 -p ack -e 40 -c 1 -i 12 -a 1 -x {5.0 0.0 -1 ------- null}
r -t 0.406264 -s 1 -d 0 -p ack -e 40 -c 1 -i 11 -a 1 -x {5.0 0.0 4 ------- null}
+ -t 0.41 -s 0 -d 1 -p tcp -e 1040 -c 1 -i 15 -a 1 -x {0.0 5.0 8 ------- null}
- -t 0.41 -s 0 -d 1 -p tcp -e 1040 -c 1 -i 15 -a 1 -x {0.0 5.0 8 ------- null}
h -t 0.41 -s 0 -d 1 -p tcp -e 1040 -c 1 -i 15 -a 1 -x {0.0 5.0 -1 ------- null}
r -t 0.412584 -s 6 -d 1 -p ack -e 40 -c 1 -i 13 -a 1 -x {5.0 0.0 6 ------- null}
+ -t 0.412584 -s 1 -d 0 -p ack -e 40 -c 1 -i 13 -a 1 -x {5.0 0.0 6 ------- null}
- -t 0.412584 -s 1 -d 0 -p ack -e 40 -c 1 -i 13 -a 1 -x {5.0 0.0 6 ------- null}
h -t 0.412584 -s 1 -d 0 -p ack -e 40 -c 1 -i 13 -a 1 -x {5.0 0.0 -1 ------- null}
r -t 0.414584 -s 1 -d 0 -p ack -e 40 -c 1 -i 12 -a 1 -x {5.0 0.0 5 ------- null}
r -t 0.416264 -s 0 -d 1 -p tcp -e 1040 -c 1 -i 14 -a 1 -x {0.0 5.0 7 ------- null}
h -t 0.416264 -s 1 -d 6 -p tcp -e 1040 -c 1 -i 14 -a 1 -x {0.0 5.0 7 ------- null}
r -t 0.422904 -s 1 -d 0 -p ack -e 40 -c 1 -i 13 -a 1 -x {5.0 0.0 6 ------- null}
+ -t 0.426264 -s 1 -d 6 -p tcp -e 1040 -c 1 -i 14 -a 1 -x {0.0 5.0 7 ------- null}
- -t 0.426264 -s 1 -d 6 -p tcp -e 1040 -c 1 -i 14 -a 1 -x {0.0 5.0 7 ------- null}
h -t 0.426264 -s 1 -d 6 -p tcp -e 1040 -c 1 -i 14 -a 1 -x {0.0 5.0 -1 ------- null}
d -t 0.426268 -s 4 -d 6 -p tcp -e 1040 -c 1 -i 14 -a 1 -x {0.0 5.0 7 ------- null}
d -t 0.426268 -s 3 -d 6 -p tcp -e 1040 -c 1 -i 14 -a 1 -x {0.0 5.0 7 ------- null}
d -t 0.426268 -s 2 -d 6 -p tcp -e 1040 -c 1 -i 14 -a 1 -x {0.0 5.0 7 ------- null}
r -t 0.42832 -s 0 -d 1 -p tcp -e 1040 -c 1 -i 15 -a 1 -x {0.0 5.0 8 ------- null}
h -t 0.42832 -s 1 -d 6 -p tcp -e 1040 -c 1 -i 15 -a 1 -x {0.0 5.0 8 ------- null}
r -t 0.436268 -s 6 -d 5 -p tcp -e 1040 -c 1 -i 14 -a 1 -x {0.0 5.0 7 ------- null}
h -t 0.436268 -s 5 -d 6 -p ack -e 40 -c 1 -i 16 -a 1 -x {5.0 0.0 7 ------- null}
+ -t 0.43832 -s 1 -d 6 -p tcp -e 1040 -c 1 -i 15 -a 1 -x {0.0 5.0 8 ------- null}
- -t 0.43832 -s 1 -d 6 -p tcp -e 1040 -c 1 -i 15 -a 1 -x {0.0 5.0 8 ------- null}
h -t 0.43832 -s 1 -d 6 -p tcp -e 1040 -c 1 -i 15 -a 1 -x {0.0 5.0 -1 ------- null}
d -t 0.438324 -s 4 -d 6 -p tcp -e 1040 -c 1 -i 15 -a 1 -x {0.0 5.0 8 ------- null}
d -t 0.438324 -s 3 -d 6 -p tcp -e 1040 -c 1 -i 15 -a 1 -x {0.0 5.0 8 ------- null}
d -t 0.438324 -s 2 -d 6 -p tcp -e 1040 -c 1 -i 15 -a 1 -x {0.0 5.0 8 ------- null}
+ -t 0.44 -s 0 -d 1 -p tcp -e 1040 -c 1 -i 17 -a 1 -x {0.0 5.0 9 ------- null}
- -t 0.44 -s 0 -d 1 -p tcp -e 1040 -c 1 -i 17 -a 1 -x {0.0 5.0 9 ------- null}
h -t 0.44 -s 0 -d 1 -p tcp -e 1040 -c 1 -i 17 -a 1 -x {0.0 5.0 -1 ------- null}
+ -t 0.446268 -s 5 -d 6 -p ack -e 40 -c 1 -i 16 -a 1 -x {5.0 0.0 7 ------- null}
- -t 0.446268 -s 5 -d 6 -p ack -e 40 -c 1 -i 16 -a 1 -x {5.0 0.0 7 ------- null}
h -t 0.446268 -s 5 -d 6 -p ack -e 40 -c 1 -i 16 -a 1 -x {5.0 0.0 -1 ------- null}
d -t 0.446272 -s 4 -d 6 -p ack -e 40 -c 1 -i 16 -a 1 -x {5.0 0.0 7 ------- null}
d -t 0.446272 -s 3 -d 6 -p ack -e 40 -c 1 -i 16 -a 1 -x {5.0 0.0 7 ------- null}
d -t 0.446272 -s 2 -d 6 -p ack -e 40 -c 1 -i 16 -a 1 -x {5.0 0.0 7 ------- null}
r -t 0.448324 -s 6 -d 5 -p tcp -e 1040 -c 1 -i 15 -a 1 -x {0.0 5.0 8 ------- null}
h -t 0.448324 -s 5 -d 6 -p ack -e 40 -c 1 -i 18 -a 1 -x {5.0 0.0 8 ------- null}
r -t 0.456272 -s 6 -d 1 -p ack -e 40 -c 1 -i 16 -a 1 -x {5.0 0.0 7 ------- null}
+ -t 0.456272 -s 1 -d 0 -p ack -e 40 -c 1 -i 16 -a 1 -x {5.0 0.0 7 ------- null}
- -t 0.456272 -s 1 -d 0 -p ack -e 40 -c 1 -i 16 -a 1 -x {5.0 0.0 7 ------- null}
h -t 0.456272 -s 1 -d 0 -p ack -e 40 -c 1 -i 16 -a 1 -x {5.0 0.0 -1 ------- null}
r -t 0.45832 -s 0 -d 1 -p tcp -e 1040 -c 1 -i 17 -a 1 -x {0.0 5.0 9 ------- null}
h -t 0.45832 -s 1 -d 6 -p tcp -e 1040 -c 1 -i 17 -a 1 -x {0.0 5.0 9 ------- null}
+ -t 0.458324 -s 5 -d 6 -p ack -e 40 -c 1 -i 18 -a 1 -x {5.0 0.0 8 ------- null}
- -t 0.458324 -s 5 -d 6 -p ack -e 40 -c 1 -i 18 -a 1 -x {5.0 0.0 8 ------- null}
h -t 0.458324 -s 5 -d 6 -p ack -e 40 -c 1 -i 18 -a 1 -x {5.0 0.0 -1 ------- null}
d -t 0.458328 -s 4 -d 6 -p ack -e 40 -c 1 -i 18 -a 1 -x {5.0 0.0 8 ------- null}
d -t 0.458328 -s 3 -d 6 -p ack -e 40 -c 1 -i 18 -a 1 -x {5.0 0.0 8 ------- null}
d -t 0.458328 -s 2 -d 6 -p ack -e 40 -c 1 -i 18 -a 1 -x {5.0 0.0 8 ------- null}
r -t 0.466592 -s 1 -d 0 -p ack -e 40 -c 1 -i 16 -a 1 -x {5.0 0.0 7 ------- null}
+ -t 0.46832 -s 1 -d 6 -p tcp -e 1040 -c 1 -i 17 -a 1 -x {0.0 5.0 9 ------- null}
- -t 0.46832 -s 1 -d 6 -p tcp -e 1040 -c 1 -i 17 -a 1 -x {0.0 5.0 9 ------- null}
h -t 0.46832 -s 1 -d 6 -p tcp -e 1040 -c 1 -i 17 -a 1 -x {0.0 5.0 -1 ------- null}
d -t 0.468324 -s 4 -d 6 -p tcp -e 1040 -c 1 -i 17 -a 1 -x {0.0 5.0 9 ------- null}
d -t 0.468324 -s 3 -d 6 -p tcp -e 1040 -c 1 -i 17 -a 1 -x {0.0 5.0 9 ------- null}
d -t 0.468324 -s 2 -d 6 -p tcp -e 1040 -c 1 -i 17 -a 1 -x {0.0 5.0 9 ------- null}
r -t 0.468328 -s 6 -d 1 -p ack -e 40 -c 1 -i 18 -a 1 -x {5.0 0.0 8 ------- null}
+ -t 0.468328 -s 1 -d 0 -p ack -e 40 -c 1 -i 18 -a 1 -x {5.0 0.0 8 ------- null}
- -t 0.468328 -s 1 -d 0 -p ack -e 40 -c 1 -i 18 -a 1 -x {5.0 0.0 8 ------- null}
h -t 0.468328 -s 1 -d 0 -p ack -e 40 -c 1 -i 18 -a 1 -x {5.0 0.0 -1 ------- null}
+ -t 0.47 -s 0 -d 1 -p tcp -e 1040 -c 1 -i 19 -a 1 -x {0.0 5.0 10 ------- null}
- -t 0.47 -s 0 -d 1 -p tcp -e 1040 -c 1 -i 19 -a 1 -x {0.0 5.0 10 ------- null}
h -t 0.47 -s 0 -d 1 -p tcp -e 1040 -c 1 -i 19 -a 1 -x {0.0 5.0 -1 ------- null}
r -t 0.478324 -s 6 -d 5 -p tcp -e 1040 -c 1 -i 17 -a 1 -x {0.0 5.0 9 ------- null}
h -t 0.478324 -s 5 -d 6 -p ack -e 40 -c 1 -i 20 -a 1 -x {5.0 0.0 9 ------- null}
r -t 0.478648 -s 1 -d 0 -p ack -e 40 -c 1 -i 18 -a 1 -x {5.0 0.0 8 ------- null}
r -t 0.48832 -s 0 -d 1 -p tcp -e 1040 -c 1 -i 19 -a 1 -x {0.0 5.0 10 ------- null}
h -t 0.48832 -s 1 -d 6 -p tcp -e 1040 -c 1 -i 19 -a 1 -x {0.0 5.0 10 ------- null}
+ -t 0.488324 -s 5 -d 6 -p ack -e 40 -c 1 -i 20 -a 1 -x {5.0 0.0 9 ------- null}
- -t 0.488324 -s 5 -d 6 -p ack -e 40 -c 1 -i 20 -a 1 -x {5.0 0.0 9 ------- null}
h -t 0.488324 -s 5 -d 6 -p ack -e 40 -c 1 -i 20 -a 1 -x {5.0 0.0 -1 ------- null}
d -t 0.488328 -s 4 -d 6 -p ack -e 40 -c 1 -i 20 -a 1 -x {5.0 0.0 9 ------- null}
d -t 0.488328 -s 3 -d 6 -p ack -e 40 -c 1 -i 20 -a 1 -x {5.0 0.0 9 ------- null}
d -t 0.488328 -s 2 -d 6 -p ack -e 40 -c 1 -i 20 -a 1 -x {5.0 0.0 9 ------- null}
+ -t 0.49832 -s 1 -d 6 -p tcp -e 1040 -c 1 -i 19 -a 1 -x {0.0 5.0 10 ------- null}
- -t 0.49832 -s 1 -d 6 -p tcp -e 1040 -c 1 -i 19 -a 1 -x {0.0 5.0 10 ------- null}
h -t 0.49832 -s 1 -d 6 -p tcp -e 1040 -c 1 -i 19 -a 1 -x {0.0 5.0 -1 ------- null}
d -t 0.498324 -s 4 -d 6 -p tcp -e 1040 -c 1 -i 19 -a 1 -x {0.0 5.0 10 ------- null}
d -t 0.498324 -s 3 -d 6 -p tcp -e 1040 -c 1 -i 19 -a 1 -x {0.0 5.0 10 ------- null}
d -t 0.498324 -s 2 -d 6 -p tcp -e 1040 -c 1 -i 19 -a 1 -x {0.0 5.0 10 ------- null}
r -t 0.498328 -s 6 -d 1 -p ack -e 40 -c 1 -i 20 -a 1 -x {5.0 0.0 9 ------- null}
+ -t 0.498328 -s 1 -d 0 -p ack -e 40 -c 1 -i 20 -a 1 -x {5.0 0.0 9 ------- null}
- -t 0.498328 -s 1 -d 0 -p ack -e 40 -c 1 -i 20 -a 1 -x {5.0 0.0 9 ------- null}
h -t 0.498328 -s 1 -d 0 -p ack -e 40 -c 1 -i 20 -a 1 -x {5.0 0.0 -1 ------- null}
+ -t 0.5 -s 0 -d 1 -p tcp -e 1040 -c 1 -i 21 -a 1 -x {0.0 5.0 11 ------- null}
- -t 0.5 -s 0 -d 1 -p tcp -e 1040 -c 1 -i 21 -a 1 -x {0.0 5.0 11 ------- null}
h -t 0.5 -s 0 -d 1 -p tcp -e 1040 -c 1 -i 21 -a 1 -x {0.0 5.0 -1 ------- null}
r -t 0.508324 -s 6 -d 5 -p tcp -e 1040 -c 1 -i 19 -a 1 -x {0.0 5.0 10 ------- null}
h -t 0.508324 -s 5 -d 6 -p ack -e 40 -c 1 -i 22 -a 1 -x {5.0 0.0 10 ------- null}
r -t 0.508648 -s 1 -d 0 -p ack -e 40 -c 1 -i 20 -a 1 -x {5.0 0.0 9 ------- null}
r -t 0.51832 -s 0 -d 1 -p tcp -e 1040 -c 1 -i 21 -a 1 -x {0.0 5.0 11 ------- null}
h -t 0.51832 -s 1 -d 6 -p tcp -e 1040 -c 1 -i 21 -a 1 -x {0.0 5.0 11 ------- null}
+ -t 0.518324 -s 5 -d 6 -p ack -e 40 -c 1 -i 22 -a 1 -x {5.0 0.0 10 ------- null}
- -t 0.518324 -s 5 -d 6 -p ack -e 40 -c 1 -i 22 -a 1 -x {5.0 0.0 10 ------- null}
h -t 0.518324 -s 5 -d 6 -p ack -e 40 -c 1 -i 22 -a 1 -x {5.0 0.0 -1 ------- null}
d -t 0.518328 -s 4 -d 6 -p ack -e 40 -c 1 -i 22 -a 1 -x {5.0 0.0 10 ------- null}
d -t 0.518328 -s 3 -d 6 -p ack -e 40 -c 1 -i 22 -a 1 -x {5.0 0.0 10 ------- null}
d -t 0.518328 -s 2 -d 6 -p ack -e 40 -c 1 -i 22 -a 1 -x {5.0 0.0 10 ------- null}
+ -t 0.52832 -s 1 -d 6 -p tcp -e 1040 -c 1 -i 21 -a 1 -x {0.0 5.0 11 ------- null}
- -t 0.52832 -s 1 -d 6 -p tcp -e 1040 -c 1 -i 21 -a 1 -x {0.0 5.0 11 ------- null}
h -t 0.52832 -s 1 -d 6 -p tcp -e 1040 -c 1 -i 21 -a 1 -x {0.0 5.0 -1 ------- null}
d -t 0.528324 -s 4 -d 6 -p tcp -e 1040 -c 1 -i 21 -a 1 -x {0.0 5.0 11 ------- null}
d -t 0.528324 -s 3 -d 6 -p tcp -e 1040 -c 1 -i 21 -a 1 -x {0.0 5.0 11 ------- null}
d -t 0.528324 -s 2 -d 6 -p tcp -e 1040 -c 1 -i 21 -a 1 -x {0.0 5.0 11 ------- null}
r -t 0.528328 -s 6 -d 1 -p ack -e 40 -c 1 -i 22 -a 1 -x {5.0 0.0 10 ------- null}
+ -t 0.528328 -s 1 -d 0 -p ack -e 40 -c 1 -i 22 -a 1 -x {5.0 0.0 10 ------- null}
- -t 0.528328 -s 1 -d 0 -p ack -e 40 -c 1 -i 22 -a 1 -x {5.0 0.0 10 ------- null}
h -t 0.528328 -s 1 -d 0 -p ack -e 40 -c 1 -i 22 -a 1 -x {5.0 0.0 -1 ------- null}
+ -t 0.53 -s 0 -d 1 -p tcp -e 1040 -c 1 -i 23 -a 1 -x {0.0 5.0 12 ------- null}
- -t 0.53 -s 0 -d 1 -p tcp -e 1040 -c 1 -i 23 -a 1 -x {0.0 5.0 12 ------- null}
h -t 0.53 -s 0 -d 1 -p tcp -e 1040 -c 1 -i 23 -a 1 -x {0.0 5.0 -1 ------- null}
r -t 0.538324 -s 6 -d 5 -p tcp -e 1040 -c 1 -i 21 -a 1 -x {0.0 5.0 11 ------- null}
h -t 0.538324 -s 5 -d 6 -p ack -e 40 -c 1 -i 24 -a 1 -x {5.0 0.0 11 ------- null}
r -t 0.538648 -s 1 -d 0 -p ack -e 40 -c 1 -i 22 -a 1 -x {5.0 0.0 10 ------- null}
r -t 0.54832 -s 0 -d 1 -p tcp -e 1040 -c 1 -i 23 -a 1 -x {0.0 5.0 12 ------- null}
h -t 0.54832 -s 1 -d 6 -p tcp -e 1040 -c 1 -i 23 -a 1 -x {0.0 5.0 12 ------- null}
+ -t 0.548324 -s 5 -d 6 -p ack -e 40 -c 1 -i 24 -a 1 -x {5.0 0.0 11 ------- null}
- -t 0.548324 -s 5 -d 6 -p ack -e 40 -c 1 -i 24 -a 1 -x {5.0 0.0 11 ------- null}
h -t 0.548324 -s 5 -d 6 -p ack -e 40 -c 1 -i 24 -a 1 -x {5.0 0.0 -1 ------- null}
d -t 0.548328 -s 4 -d 6 -p ack -e 40 -c 1 -i 24 -a 1 -x {5.0 0.0 11 ------- null}
d -t 0.548328 -s 3 -d 6 -p ack -e 40 -c 1 -i 24 -a 1 -x {5.0 0.0 11 ------- null}
d -t 0.548328 -s 2 -d 6 -p ack -e 40 -c 1 -i 24 -a 1 -x {5.0 0.0 11 ------- null}
+ -t 0.55832 -s 1 -d 6 -p tcp -e 1040 -c 1 -i 23 -a 1 -x {0.0 5.0 12 ------- null}
- -t 0.55832 -s 1 -d 6 -p tcp -e 1040 -c 1 -i 23 -a 1 -x {0.0 5.0 12 ------- null}
h -t 0.55832 -s 1 -d 6 -p tcp -e 1040 -c 1 -i 23 -a 1 -x {0.0 5.0 -1 ------- null}
d -t 0.558324 -s 4 -d 6 -p tcp -e 1040 -c 1 -i 23 -a 1 -x {0.0 5.0 12 ------- null}
d -t 0.558324 -s 3 -d 6 -p tcp -e 1040 -c 1 -i 23 -a 1 -x {0.0 5.0 12 ------- null}
d -t 0.558324 -s 2 -d 6 -p tcp -e 1040 -c 1 -i 23 -a 1 -x {0.0 5.0 12 ------- null}
r -t 0.558328 -s 6 -d 1 -p ack -e 40 -c 1 -i 24 -a 1 -x {5.0 0.0 11 ------- null}
+ -t 0.558328 -s 1 -d 0 -p ack -e 40 -c 1 -i 24 -a 1 -x {5.0 0.0 11 ------- null}
- -t 0.558328 -s 1 -d 0 -p ack -e 40 -c 1 -i 24 -a 1 -x {5.0 0.0 11 ------- null}
h -t 0.558328 -s 1 -d 0 -p ack -e 40 -c 1 -i 24 -a 1 -x {5.0 0.0 -1 ------- null}
+ -t 0.56 -s 0 -d 1 -p tcp -e 1040 -c 1 -i 25 -a 1 -x {0.0 5.0 13 ------- null}
- -t 0.56 -s 0 -d 1 -p tcp -e 1040 -c 1 -i 25 -a 1 -x {0.0 5.0 13 ------- null}
h -t 0.56 -s 0 -d 1 -p tcp -e 1040 -c 1 -i 25 -a 1 -x {0.0 5.0 -1 ------- null}
r -t 0.568324 -s 6 -d 5 -p tcp -e 1040 -c 1 -i 23 -a 1 -x {0.0 5.0 12 ------- null}
h -t 0.568324 -s 5 -d 6 -p ack -e 40 -c 1 -i 26 -a 1 -x {5.0 0.0 12 ------- null}
r -t 0.568648 -s 1 -d 0 -p ack -e 40 -c 1 -i 24 -a 1 -x {5.0 0.0 11 ------- null}
r -t 0.57832 -s 0 -d 1 -p tcp -e 1040 -c 1 -i 25 -a 1 -x {0.0 5.0 13 ------- null}
h -t 0.57832 -s 1 -d 6 -p tcp -e 1040 -c 1 -i 25 -a 1 -x {0.0 5.0 13 ------- null}
+ -t 0.578324 -s 5 -d 6 -p ack -e 40 -c 1 -i 26 -a 1 -x {5.0 0.0 12 ------- null}
- -t 0.578324 -s 5 -d 6 -p ack -e 40 -c 1 -i 26 -a 1 -x {5.0 0.0 12 ------- null}
h -t 0.578324 -s 5 -d 6 -p ack -e 40 -c 1 -i 26 -a 1 -x {5.0 0.0 -1 ------- null}
d -t 0.578328 -s 4 -d 6 -p ack -e 40 -c 1 -i 26 -a 1 -x {5.0 0.0 12 ------- null}
d -t 0.578328 -s 3 -d 6 -p ack -e 40 -c 1 -i 26 -a 1 -x {5.0 0.0 12 ------- null}
d -t 0.578328 -s 2 -d 6 -p ack -e 40 -c 1 -i 26 -a 1 -x {5.0 0.0 12 ------- null}
+ -t 0.58832 -s 1 -d 6 -p tcp -e 1040 -c 1 -i 25 -a 1 -x {0.0 5.0 13 ------- null}
- -t 0.58832 -s 1 -d 6 -p tcp -e 1040 -c 1 -i 25 -a 1 -x {0.0 5.0 13 ------- null}
h -t 0.58832 -s 1 -d 6 -p tcp -e 1040 -c 1 -i 25 -a 1 -x {0.0 5.0 -1 ------- null}
d -t 0.588324 -s 4 -d 6 -p tcp -e 1040 -c 1 -i 25 -a 1 -x {0.0 5.0 13 ------- null}
d -t 0.588324 -s 3 -d 6 -p tcp -e 1040 -c 1 -i 25 -a 1 -x {0.0 5.0 13 ------- null}
d -t 0.588324 -s 2 -d 6 -p tcp -e 1040 -c 1 -i 25 -a 1 -x {0.0 5.0 13 ------- null}
r -t 0.588328 -s 6 -d 1 -p ack -e 40 -c 1 -i 26 -a 1 -x {5.0 0.0 12 ------- null}
+ -t 0.588328 -s 1 -d 0 -p ack -e 40 -c 1 -i 26 -a 1 -x {5.0 0.0 12 ------- null}
- -t 0.588328 -s 1 -d 0 -p ack -e 40 -c 1 -i 26 -a 1 -x {5.0 0.0 12 ------- null}
h -t 0.588328 -s 1 -d 0 -p ack -e 40 -c 1 -i 26 -a 1 -x {5.0 0.0 -1 ------- null}
+ -t 0.59 -s 0 -d 1 -p tcp -e 1040 -c 1 -i 27 -a 1 -x {0.0 5.0 14 ------- null}
- -t 0.59 -s 0 -d 1 -p tcp -e 1040 -c 1 -i 27 -a 1 -x {0.0 5.0 14 ------- null}
h -t 0.59 -s 0 -d 1 -p tcp -e 1040 -c 1 -i 27 -a 1 -x {0.0 5.0 -1 ------- null}
r -t 0.598324 -s 6 -d 5 -p tcp -e 1040 -c 1 -i 25 -a 1 -x {0.0 5.0 13 ------- null}
h -t 0.598324 -s 5 -d 6 -p ack -e 40 -c 1 -i 28 -a 1 -x {5.0 0.0 13 ------- null}
r -t 0.598648 -s 1 -d 0 -p ack -e 40 -c 1 -i 26 -a 1 -x {5.0 0.0 12 ------- null}
r -t 0.60832 -s 0 -d 1 -p tcp -e 1040 -c 1 -i 27 -a 1 -x {0.0 5.0 14 ------- null}
h -t 0.60832 -s 1 -d 6 -p tcp -e 1040 -c 1 -i 27 -a 1 -x {0.0 5.0 14 ------- null}
+ -t 0.608324 -s 5 -d 6 -p ack -e 40 -c 1 -i 28 -a 1 -x {5.0 0.0 13 ------- null}
- -t 0.608324 -s 5 -d 6 -p ack -e 40 -c 1 -i 28 -a 1 -x {5.0 0.0 13 ------- null}
h -t 0.608324 -s 5 -d 6 -p ack -e 40 -c 1 -i 28 -a 1 -x {5.0 0.0 -1 ------- null}
d -t 0.608328 -s 4 -d 6 -p ack -e 40 -c 1 -i 28 -a 1 -x {5.0 0.0 13 ------- null}
d -t 0.608328 -s 3 -d 6 -p ack -e 40 -c 1 -i 28 -a 1 -x {5.0 0.0 13 ------- null}
d -t 0.608328 -s 2 -d 6 -p ack -e 40 -c 1 -i 28 -a 1 -x {5.0 0.0 13 ------- null}
+ -t 0.61832 -s 1 -d 6 -p tcp -e 1040 -c 1 -i 27 -a 1 -x {0.0 5.0 14 ------- null}
- -t 0.61832 -s 1 -d 6 -p tcp -e 1040 -c 1 -i 27 -a 1 -x {0.0 5.0 14 ------- null}
h -t 0.61832 -s 1 -d 6 -p tcp -e 1040 -c 1 -i 27 -a 1 -x {0.0 5.0 -1 ------- null}
d -t 0.618324 -s 4 -d 6 -p tcp -e 1040 -c 1 -i 27 -a 1 -x {0.0 5.0 14 ------- null}
d -t 0.618324 -s 3 -d 6 -p tcp -e 1040 -c 1 -i 27 -a 1 -x {0.0 5.0 14 ------- null}
d -t 0.618324 -s 2 -d 6 -p tcp -e 1040 -c 1 -i 27 -a 1 -x {0.0 5.0 14 ------- null}
r -t 0.618328 -s 6 -d 1 -p ack -e 40 -c 1 -i 28 -a 1 -x {5.0 0.0 13 ------- null}
+ -t 0.618328 -s 1 -d 0 -p ack -e 40 -c 1 -i 28 -a 1 -x {5.0 0.0 13 ------- null}
- -t 0.618328 -s 1 -d 0 -p ack -e 40 -c 1 -i 28 -a 1 -x {5.0 0.0 13 ------- null}
h -t 0.618328 -s 1 -d 0 -p ack -e 40 -c 1 -i 28 -a 1 -x {5.0 0.0 -1 ------- null}
+ -t 0.62 -s 0 -d 1 -p tcp -e 1040 -c 1 -i 29 -a 1 -x {0.0 5.0 15 ------- null}
- -t 0.62 -s 0 -d 1 -p tcp -e 1040 -c 1 -i 29 -a 1 -x {0.0 5.0 15 ------- null}
h -t 0.62 -s 0 -d 1 -p tcp -e 1040 -c 1 -i 29 -a 1 -x {0.0 5.0 -1 ------- null}
r -t 0.628324 -s 6 -d 5 -p tcp -e 1040 -c 1 -i 27 -a 1 -x {0.0 5.0 14 ------- null}
h -t 0.628324 -s 5 -d 6 -p ack -e 40 -c 1 -i 30 -a 1 -x {5.0 0.0 14 ------- null}
r -t 0.628648 -s 1 -d 0 -p ack -e 40 -c 1 -i 28 -a 1 -x {5.0 0.0 13 ------- null}
r -t 0.63832 -s 0 -d 1 -p tcp -e 1040 -c 1 -i 29 -a 1 -x {0.0 5.0 15 ------- null}
h -t 0.63832 -s 1 -d 6 -p tcp -e 1040 -c 1 -i 29 -a 1 -x {0.0 5.0 15 ------- null}
+ -t 0.638324 -s 5 -d 6 -p ack -e 40 -c 1 -i 30 -a 1 -x {5.0 0.0 14 ------- null}
- -t 0.638324 -s 5 -d 6 -p ack -e 40 -c 1 -i 30 -a 1 -x {5.0 0.0 14 ------- null}
h -t 0.638324 -s 5 -d 6 -p ack -e 40 -c 1 -i 30 -a 1 -x {5.0 0.0 -1 ------- null}
d -t 0.638328 -s 4 -d 6 -p ack -e 40 -c 1 -i 30 -a 1 -x {5.0 0.0 14 ------- null}
d -t 0.638328 -s 3 -d 6 -p ack -e 40 -c 1 -i 30 -a 1 -x {5.0 0.0 14 ------- null}
d -t 0.638328 -s 2 -d 6 -p ack -e 40 -c 1 -i 30 -a 1 -x {5.0 0.0 14 ------- null}