+ 0.2 0 1 tcp 40 ------- 1 0.0 5.0 0 0
- 0.2 0 1 tcp 40 ------- 1 0.0 5.0 0 0
r 0.21032 0 1 tcp 40 ------- 1 0.0 5.0 0 0
h 0.21032 1 6 tcp 40 ------- 1 0.0 5.0 0 0
+ 0.22032 1 6 tcp 40 ------- 1 0.0 5.0 0 0
- 0.22032 1 6 tcp 40 ------- 1 0.0 5.0 0 0
d 0.220324 4 6 tcp 40 ------- 1 0.0 5.0 0 0
d 0.220324 3 6 tcp 40 ------- 1 0.0 5.0 0 0
d 0.220324 2 6 tcp 40 ------- 1 0.0 5.0 0 0
r 0.230324 6 5 tcp 40 ------- 1 0.0 5.0 0 0
h 0.230324 5 6 ack 40 ------- 1 5.0 0.0 0 1
+ 0.240324 5 6 ack 40 ------- 1 5.0 0.0 0 1
- 0.240324 5 6 ack 40 ------- 1 5.0 0.0 0 1
d 0.240328 4 6 ack 40 ------- 1 5.0 0.0 0 1
d 0.240328 3 6 ack 40 ------- 1 5.0 0.0 0 1
d 0.240328 2 6 ack 40 ------- 1 5.0 0.0 0 1
r 0.250328 6 1 ack 40 ------- 1 5.0 0.0 0 1
+ 0.250328 1 0 ack 40 ------- 1 5.0 0.0 0 1
- 0.250328 1 0 ack 40 ------- 1 5.0 0.0 0 1
r 0.260648 1 0 ack 40 ------- 1 5.0 0.0 0 1
+ 0.260648 0 1 tcp 1040 ------- 1 0.0 5.0 1 2
- 0.260648 0 1 tcp 1040 ------- 1 0.0 5.0 1 2
+ 0.260648 0 1 tcp 1040 ------- 1 0.0 5.0 2 3
- 0.268968 0 1 tcp 1040 ------- 1 0.0 5.0 2 3
r 0.278968 0 1 tcp 1040 ------- 1 0.0 5.0 1 2
h 0.278968 1 6 tcp 1040 ------- 1 0.0 5.0 1 2
r 0.287288 0 1 tcp 1040 ------- 1 0.0 5.0 2 3
h 0.287288 1 6 tcp 1040 ------- 1 0.0 5.0 2 3
+ 0.288968 1 6 tcp 1040 ------- 1 0.0 5.0 1 2
- 0.288968 1 6 tcp 1040 ------- 1 0.0 5.0 1 2
d 0.288972 4 6 tcp 1040 ------- 1 0.0 5.0 1 2
d 0.288972 3 6 tcp 1040 ------- 1 0.0 5.0 1 2
d 0.288972 2 6 tcp 1040 ------- 1 0.0 5.0 1 2
+ 0.297288 1 6 tcp 1040 ------- 1 0.0 5.0 2 3
- 0.297288 1 6 tcp 1040 ------- 1 0.0 5.0 2 3
d 0.297292 4 6 tcp 1040 ------- 1 0.0 5.0 2 3
d 0.297292 3 6 tcp 1040 ------- 1 0.0 5.0 2 3
d 0.297292 2 6 tcp 1040 ------- 1 0.0 5.0 2 3
r 0.298972 6 5 tcp 1040 ------- 1 0.0 5.0 1 2
h 0.298972 5 6 ack 40 ------- 1 5.0 0.0 1 4
r 0.307292 6 5 tcp 1040 ------- 1 0.0 5.0 2 3
h 0.307292 5 6 ack 40 ------- 1 5.0 0.0 2 5
+ 0.308972 5 6 ack 40 ------- 1 5.0 0.0 1 4
- 0.308972 5 6 ack 40 ------- 1 5.0 0.0 1 4
d 0.308976 4 6 ack 40 ------- 1 5.0 0.0 1 4
d 0.308976 3 6 ack 40 ------- 1 5.0 0.0 1 4
d 0.308976 2 6 ack 40 ------- 1 5.0 0.0 1 4
+ 0.317292 5 6 ack 40 ------- 1 5.0 0.0 2 5
- 0.317292 5 6 ack 40 ------- 1 5.0 0.0 2 5
d 0.317296 4 6 ack 40 ------- 1 5.0 0.0 2 5
d 0.317296 3 6 ack 40 ------- 1 5.0 0.0 2 5
d 0.317296 2 6 ack 40 ------- 1 5.0 0.0 2 5
r 0.318976 6 1 ack 40 ------- 1 5.0 0.0 1 4
+ 0.318976 1 0 ack 40 ------- 1 5.0 0.0 1 4
- 0.318976 1 0 ack 40 ------- 1 5.0 0.0 1 4
r 0.327296 6 1 ack 40 ------- 1 5.0 0.0 2 5
+ 0.327296 1 0 ack 40 ------- 1 5.0 0.0 2 5
- 0.327296 1 0 ack 40 ------- 1 5.0 0.0 2 5
r 0.329296 1 0 ack 40 ------- 1 5.0 0.0 1 4
+ 0.329296 0 1 tcp 1040 ------- 1 0.0 5.0 3 6
- 0.329296 0 1 tcp 1040 ------- 1 0.0 5.0 3 6
+ 0.329296 0 1 tcp 1040 ------- 1 0.0 5.0 4 7
r 0.337616 1 0 ack 40 ------- 1 5.0 0.0 2 5
+ 0.337616 0 1 tcp 1040 ------- 1 0.0 5.0 5 8
- 0.337616 0 1 tcp 1040 ------- 1 0.0 5.0 4 7
- 0.345936 0 1 tcp 1040 ------- 1 0.0 5.0 5 8
r 0.347616 0 1 tcp 1040 ------- 1 0.0 5.0 3 6
h 0.347616 1 6 tcp 1040 ------- 1 0.0 5.0 3 6
+ 0.35 0 1 tcp 1040 ------- 1 0.0 5.0 6 9
- 0.354256 0 1 tcp 1040 ------- 1 0.0 5.0 6 9
r 0.355936 0 1 tcp 1040 ------- 1 0.0 5.0 4 7
h 0.355936 1 6 tcp 1040 ------- 1 0.0 5.0 4 7
+ 0.357616 1 6 tcp 1040 ------- 1 0.0 5.0 3 6
- 0.357616 1 6 tcp 1040 ------- 1 0.0 5.0 3 6
d 0.35762 4 6 tcp 1040 ------- 1 0.0 5.0 3 6
d 0.35762 3 6 tcp 1040 ------- 1 0.0 5.0 3 6
d 0.35762 2 6 tcp 1040 ------- 1 0.0 5.0 3 6
r 0.364256 0 1 tcp 1040 ------- 1 0.0 5.0 5 8
h 0.364256 1 6 tcp 1040 ------- 1 0.0 5.0 5 8
+ 0.365936 1 6 tcp 1040 ------- 1 0.0 5.0 4 7
- 0.365936 1 6 tcp 1040 ------- 1 0.0 5.0 4 7
d 0.36594 4 6 tcp 1040 ------- 1 0.0 5.0 4 7
d 0.36594 3 6 tcp 1040 ------- 1 0.0 5.0 4 7
d 0.36594 2 6 tcp 1040 ------- 1 0.0 5.0 4 7
r 0.36762 6 5 tcp 1040 ------- 1 0.0 5.0 3 6
h 0.36762 5 6 ack 40 ------- 1 5.0 0.0 3 10
r 0.372576 0 1 tcp 1040 ------- 1 0.0 5.0 6 9
h 0.372576 1 6 tcp 1040 ------- 1 0.0 5.0 6 9
+ 0.374256 1 6 tcp 1040 ------- 1 0.0 5.0 5 8
- 0.374256 1 6 tcp 1040 ------- 1 0.0 5.0 5 8
d 0.37426 4 6 tcp 1040 ------- 1 0.0 5.0 5 8
d 0.37426 3 6 tcp 1040 ------- 1 0.0 5.0 5 8
d 0.37426 2 6 tcp 1040 ------- 1 0.0 5.0 5 8
r 0.37594 6 5 tcp 1040 ------- 1 0.0 5.0 4 7
h 0.37594 5 6 ack 40 ------- 1 5.0 0.0 4 11
+ 0.37762 5 6 ack 40 ------- 1 5.0 0.0 3 10
- 0.37762 5 6 ack 40 ------- 1 5.0 0.0 3 10
d 0.377624 4 6 ack 40 ------- 1 5.0 0.0 3 10
d 0.377624 3 6 ack 40 ------- 1 5.0 0.0 3 10
d 0.377624 2 6 ack 40 ------- 1 5.0 0.0 3 10
+ 0.382576 1 6 tcp 1040 ------- 1 0.0 5.0 6 9
- 0.382576 1 6 tcp 1040 ------- 1 0.0 5.0 6 9
d 0.38258 4 6 tcp 1040 ------- 1 0.0 5.0 6 9
d 0.38258 3 6 tcp 1040 ------- 1 0.0 5.0 6 9
d 0.38258 2 6 tcp 1040 ------- 1 0.0 5.0 6 9
r 0.38426 6 5 tcp 1040 ------- 1 0.0 5.0 5 8
h 0.38426 5 6 ack 40 ------- 1 5.0 0.0 5 12
+ 0.38594 5 6 ack 40 ------- 1 5.0 0.0 4 11
- 0.38594 5 6 ack 40 ------- 1 5.0 0.0 4 11
d 0.385944 4 6 ack 40 ------- 1 5.0 0.0 4 11
d 0.385944 3 6 ack 40 ------- 1 5.0 0.0 4 11
d 0.385944 2 6 ack 40 ------- 1 5.0 0.0 4 11
r 0.387624 6 1 ack 40 ------- 1 5.0 0.0 3 10
+ 0.387624 1 0 ack 40 ------- 1 5.0 0.0 3 10
- 0.387624 1 0 ack 40 ------- 1 5.0 0.0 3 10
r 0.39258 6 5 tcp 1040 ------- 1 0.0 5.0 6 9
h 0.39258 5 6 ack 40 ------- 1 5.0 0.0 6 13
+ 0.39426 5 6 ack 40 ------- 1 5.0 0.0 5 12
- 0.39426 5 6 ack 40 ------- 1 5.0 0.0 5 12
d 0.394264 4 6 ack 40 ------- 1 5.0 0.0 5 12
d 0.394264 3 6 ack 40 ------- 1 5.0 0.0 5 12
d 0.394264 2 6 ack 40 ------- 1 5.0 0.0 5 12
r 0.395944 6 1 ack 40 ------- 1 5.0 0.0 4 11
+ 0.395944 1 0 ack 40 ------- 1 5.0 0.0 4 11
- 0.395944 1 0 ack 40 ------- 1 5.0 0.0 4 11
r 0.397944 1 0 ack 40 ------- 1 5.0 0.0 3 10
+ 0.397944 0 1 tcp 1040 ------- 1 0.0 5.0 7 14
- 0.397944 0 1 tcp 1040 ------- 1 0.0 5.0 7 14
+ 0.40258 5 6 ack 40 ------- 1 5.0 0.0 6 13
- 0.40258 5 6 ack 40 ------- 1 5.0 0.0 6 13
d 0.402584 4 6 ack 40 ------- 1 5.0 0.0 6 13
d 0.402584 3 6 ack 40 ------- 1 5.0 0.0 6 13
d 0.402584 2 6 ack 40 ------- 1 5.0 0.0 6 13
r 0.404264 6 1 ack 40 ------- 1 5.0 0.0 5 12
+ 0.404264 1 0 ack 40 ------- 1 5.0 0.0 5 12
- 0.404264 1 0 ack 40 ------- 1 5.0 0.0 5 12
r 0.406264 1 0 ack 40 ------- 1 5.0 0.0 4 11
+ 0.41 0 1 tcp 1040 ------- 1 0.0 5.0 8 15
- 0.41 0 1 tcp 1040 ------- 1 0.0 5.0 8 15
r 0.412584 6 1 ack 40 ------- 1 5.0 0.0 6 13
+ 0.412584 1 0 ack 40 ------- 1 5.0 0.0 6 13
- 0.412584 1 0 ack 40 ------- 1 5.0 0.0 6 13
r 0.414584 1 0 ack 40 ------- 1 5.0 0.0 5 12
r 0.416264 0 1 tcp 1040 ------- 1 0.0 5.0 7 14
h 0.416264 1 6 tcp 1040 ------- 1 0.0 5.0 7 14
r 0.422904 1 0 ack 40 ------- 1 5.0 0.0 6 13
+ 0.426264 1 6 tcp 1040 ------- 1 0.0 5.0 7 14
- 0.426264 1 6 tcp 1040 ------- 1 0.0 5.0 7 14
d 0.426268 4 6 tcp 1040 ------- 1 0.0 5.0 7 14
d 0.426268 3 6 tcp 1040 ------- 1 0.0 5.0 7 14
d 0.426268 2 6 tcp 1040 ------- 1 0.0 5.0 7 14
r 0.42832 0 1 tcp 1040 ------- 1 0.0 5.0 8 15
h 0.42832 1 6 tcp 1040 ------- 1 0.0 5.0 8 15
r 0.436268 6 5 tcp 1040 ------- 1 0.0 5.0 7 14
h 0.436268 5 6 ack 40 ------- 1 5.0 0.0 7 16
+ 0.43832 1 6 tcp 1040 ------- 1 0.0 5.0 8 15
- 0.43832 1 6 tcp 1040 ------- 1 0.0 5.0 8 15
d 0.438324 4 6 tcp 1040 ------- 1 0.0 5.0 8 15
d 0.438324 3 6 tcp 1040 ------- 1 0.0 5.0 8 15
d 0.438324 2 6 tcp 1040 ------- 1 0.0 5.0 8 15
+ 0.44 0 1 tcp 1040 ------- 1 0.0 5.0 9 17
- 0.44 0 1 tcp 1040 ------- 1 0.0 5.0 9 17
+ 0.446268 5 6 ack 40 ------- 1 5.0 0.0 7 16
- 0.446268 5 6 ack 40 ------- 1 5.0 0.0 7 16
d 0.446272 4 6 ack 40 ------- 1 5.0 0.0 7 16
d 0.446272 3 6 ack 40 ------- 1 5.0 0.0 7 16
d 0.446272 2 6 ack 40 ------- 1 5.0 0.0 7 16
r 0.448324 6 5 tcp 1040 ------- 1 0.0 5.0 8 15
h 0.448324 5 6 ack 40 ------- 1 5.0 0.0 8 18
r 0.456272 6 1 ack 40 ------- 1 5.0 0.0 7 16
+ 0.456272 1 0 ack 40 ------- 1 5.0 0.0 7 16
- 0.456272 1 0 ack 40 ------- 1 5.0 0.0 7 16
r 0.45832 0 1 tcp 1040 ------- 1 0.0 5.0 9 17
h 0.45832 1 6 tcp 1040 ------- 1 0.0 5.0 9 17
+ 0.458324 5 6 ack 40 ------- 1 5.0 0.0 8 18
- 0.458324 5 6 ack 40 ------- 1 5.0 0.0 8 18
d 0.458328 4 6 ack 40 ------- 1 5.0 0.0 8 18
d 0.458328 3 6 ack 40 ------- 1 5.0 0.0 8 18
d 0.458328 2 6 ack 40 ------- 1 5.0 0.0 8 18
r 0.466592 1 0 ack 40 ------- 1 5.0 0.0 7 16
+ 0.46832 1 6 tcp 1040 ------- 1 0.0 5.0 9 17
- 0.46832 1 6 tcp 1040 ------- 1 0.0 5.0 9 17
d 0.468324 4 6 tcp 1040 ------- 1 0.0 5.0 9 17
d 0.468324 3 6 tcp 1040 ------- 1 0.0 5.0 9 17
d 0.468324 2 6 tcp 1040 ------- 1 0.0 5.0 9 17
r 0.468328 6 1 ack 40 ------- 1 5.0 0.0 8 18
+ 0.468328 1 0 ack 40 ------- 1 5.0 0.0 8 18
- 0.468328 1 0 ack 40 ------- 1 5.0 0.0 8 18
+ 0.47 0 1 tcp 1040 ------- 1 0.0 5.0 10 19
- 0.47 0 1 tcp 1040 ------- 1 0.0 5.0 10 19
r 0.478324 6 5 tcp 1040 ------- 1 0.0 5.0 9 17
h 0.478324 5 6 ack 40 ------- 1 5.0 0.0 9 20
r 0.478648 1 0 ack 40 ------- 1 5.0 0.0 8 18
r 0.48832 0 1 tcp 1040 ------- 1 0.0 5.0 10 19
h 0.48832 1 6 tcp 1040 ------- 1 0.0 5.0 10 19
+ 0.488324 5 6 ack 40 ------- 1 5.0 0.0 9 20
- 0.488324 5 6 ack 40 ------- 1 5.0 0.0 9 20
d 0.488328 4 6 ack 40 ------- 1 5.0 0.0 9 20
d 0.488328 3 6 ack 40 ------- 1 5.0 0.0 9 20
d 0.488328 2 6 ack 40 ------- 1 5.0 0.0 9 20
+ 0.49832 1 6 tcp 1040 ------- 1 0.0 5.0 10 19
- 0.49832 1 6 tcp 1040 ------- 1 0.0 5.0 10 19
d 0.498324 4 6 tcp 1040 ------- 1 0.0 5.0 10 19
d 0.498324 3 6 tcp 1040 ------- 1 0.0 5.0 10 19
d 0.498324 2 6 tcp 1040 ------- 1 0.0 5.0 10 19
r 0.498328 6 1 ack 40 ------- 1 5.0 0.0 9 20
+ 0.498328 1 0 ack 40 ------- 1 5.0 0.0 9 20
- 0.498328 1 0 ack 40 ------- 1 5.0 0.0 9 20
+ 0.5 0 1 tcp 1040 ------- 1 0.0 5.0 11 21
- 0.5 0 1 tcp 1040 ------- 1 0.0 5.0 11 21
r 0.508324 6 5 tcp 1040 ------- 1 0.0 5.0 10 19
h 0.508324 5 6 ack 40 ------- 1 5.0 0.0 10 22
r 0.508648 1 0 ack 40 ------- 1 5.0 0.0 9 20
r 0.51832 0 1 tcp 1040 ------- 1 0.0 5.0 11 21
h 0.51832 1 6 tcp 1040 ------- 1 0.0 5.0 11 21
+ 0.518324 5 6 ack 40 ------- 1 5.0 0.0 10 22
- 0.518324 5 6 ack 40 ------- 1 5.0 0.0 10 22
d 0.518328 4 6 ack 40 ------- 1 5.0 0.0 10 22
d 0.518328 3 6 ack 40 ------- 1 5.0 0.0 10 22
d 0.518328 2 6 ack 40 ------- 1 5.0 0.0 10 22
+ 0.52832 1 6 tcp 1040 ------- 1 0.0 5.0 11 21
- 0.52832 1 6 tcp 1040 ------- 1 0.0 5.0 11 21
d 0.528324 4 6 tcp 1040 ------- 1 0.0 5.0 11 21
d 0.528324 3 6 tcp 1040 ------- 1 0.0 5.0 11 21
d 0.528324 2 6 tcp 1040 ------- 1 0.0 5.0 11 21
r 0.528328 6 1 ack 40 ------- 1 5.0 0.0 10 22
+ 0.528328 1 0 ack 40 ------- 1 5.0 0.0 10 22
- 0.528328 1 0 ack 40 ------- 1 5.0 0.0 10 22
+ 0.53 0 1 tcp 1040 ------- 1 0.0 5.0 12 23
- 0.53 0 1 tcp 1040 ------- 1 0.0 5.0 12 23
r 0.538324 6 5 tcp 1040 ------- 1 0.0 5.0 11 21
h 0.538324 5 6 ack 40 ------- 1 5.0 0.0 11 24
r 0.538648 1 0 ack 40 ------- 1 5.0 0.0 10 22
r 0.54832 0 1 tcp 1040 ------- 1 0.0 5.0 12 23
h 0.54832 1 6 tcp 1040 ------- 1 0.0 5.0 12 23
+ 0.548324 5 6 ack 40 ------- 1 5.0 0.0 11 24
- 0.548324 5 6 ack 40 ------- 1 5.0 0.0 11 24
d 0.548328 4 6 ack 40 ------- 1 5.0 0.0 11 24
d 0.548328 3 6 ack 40 ------- 1 5.0 0.0 11 24
d 0.548328 2 6 ack 40 ------- 1 5.0 0.0 11 24
+ 0.55832 1 6 tcp 1040 ------- 1 0.0 5.0 12 23
- 0.55832 1 6 tcp 1040 ------- 1 0.0 5.0 12 23
d 0.558324 4 6 tcp 1040 ------- 1 0.0 5.0 12 23
d 0.558324 3 6 tcp 1040 ------- 1 0.0 5.0 12 23
d 0.558324 2 6 tcp 1040 ------- 1 0.0 5.0 12 23
r 0.558328 6 1 ack 40 ------- 1 5.0 0.0 11 24
+ 0.558328 1 0 ack 40 ------- 1 5.0 0.0 11 24
- 0.558328 1 0 ack 40 ------- 1 5.0 0.0 11 24
+ 0.56 0 1 tcp 1040 ------- 1 0.0 5.0 13 25
- 0.56 0 1 tcp 1040 ------- 1 0.0 5.0 13 25
r 0.568324 6 5 tcp 1040 ------- 1 0.0 5.0 12 23
h 0.568324 5 6 ack 40 ------- 1 5.0 0.0 12 26
r 0.568648 1 0 ack 40 ------- 1 5.0 0.0 11 24
r 0.57832 0 1 tcp 1040 ------- 1 0.0 5.0 13 25
h 0.57832 1 6 tcp 1040 ------- 1 0.0 5.0 13 25
+ 0.578324 5 6 ack 40 ------- 1 5.0 0.0 12 26
- 0.578324 5 6 ack 40 ------- 1 5.0 0.0 12 26
d 0.578328 4 6 ack 40 ------- 1 5.0 0.0 12 26
d 0.578328 3 6 ack 40 ------- 1 5.0 0.0 12 26
d 0.578328 2 6 ack 40 ------- 1 5.0 0.0 12 26
+ 0.58832 1 6 tcp 1040 ------- 1 0.0 5.0 13 25
- 0.58832 1 6 tcp 1040 ------- 1 0.0 5.0 13 25
d 0.588324 4 6 tcp 1040 ------- 1 0.0 5.0 13 25
d 0.588324 3 6 tcp 1040 ------- 1 0.0 5.0 13 25
d 0.588324 2 6 tcp 1040 ------- 1 0.0 5.0 13 25
r 0.588328 6 1 ack 40 ------- 1 5.0 0.0 12 26
+ 0.588328 1 0 ack 40 ------- 1 5.0 0.0 12 26
- 0.588328 1 0 ack 40 ------- 1 5.0 0.0 12 26
+ 0.59 0 1 tcp 1040 ------- 1 0.0 5.0 14 27
- 0.59 0 1 tcp 1040 ------- 1 0.0 5.0 14 27
r 0.598324 6 5 tcp 1040 ------- 1 0.0 5.0 13 25
h 0.598324 5 6 ack 40 ------- 1 5.0 0.0 13 28
r 0.598648 1 0 ack 40 ------- 1 5.0 0.0 12 26
r 0.60832 0 1 tcp 1040 ------- 1 0.0 5.0 14 27
h 0.60832 1 6 tcp 1040 ------- 1 0.0 5.0 14 27
+ 0.608324 5 6 ack 40 ------- 1 5.0 0.0 13 28
- 0.608324 5 6 ack 40 ------- 1 5.0 0.0 13 28
d 0.608328 4 6 ack 40 ------- 1 5.0 0.0 13 28
d 0.608328 3 6 ack 40 ------- 1 5.0 0.0 13 28
d 0.608328 2 6 ack 40 ------- 1 5.0 0.0 13 28
+ 0.61832 1 6 tcp 1040 ------- 1 0.0 5.0 14 27
- 0.61832 1 6 tcp 1040 ------- 1 0.0 5.0 14 27
d 0.618324 4 6 tcp 1040 ------- 1 0.0 5.0 14 27
d 0.618324 3 6 tcp 1040 ------- 1 0.0 5.0 14 27
d 0.618324 2 6 tcp 1040 ------- 1 0.0 5.0 14 27
r 0.618328 6 1 ack 40 ------- 1 5.0 0.0 13 28
+ 0.618328 1 0 ack 40 ------- 1 5.0 0.0 13 28
- 0.618328 1 0 ack 40 ------- 1 5.0 0.0 13 28
+ 0.62 0 1 tcp 1040 ------- 1 0.0 5.0 15 29
- 0.62 0 1 tcp 1040 ------- 1 0.0 5.0 15 29
r 0.628324 6 5 tcp 1040 ------- 1 0.0 5.0 14 27
h 0.628324 5 6 ack 40 ------- 1 5.0 0.0 14 30
r 0.628648 1 0 ack 40 ------- 1 5.0 0.0 13 28
r 0.63832 0 1 tcp 1040 ------- 1 0.0 5.0 15 29
h 0.63832 1 6 tcp 1040 ------- 1 0.0 5.0 15 29
+ 0.638324 5 6 ack 40 ------- 1 5.0 0.0 14 30
- 0.638324 5 6 ack 40 ------- 1 5.0 0.0 14 30
d 0.638328 4 6 ack 40 ------- 1 5.0 0.0 14 30
d 0.638328 3 6 ack 40 ------- 1 5.0 0.0 14 30
d 0.638328 2 6 ack 40 ------- 1 5.0 0.0 14 30
+ 0.64832 1 6 tcp 1040 ------- 1 0.0 5.0 15 29
- 0.64832 1 6 tcp 1040 ------- 1 0.0 5.0 15 29
d 0.648324 4 6 tcp 1040 ------- 1 0.0 5.0 15 29
d 0.648324 3 6 tcp 1040 ------- 1 0.0 5.0 15 29
d 0.648324 2 6 tcp 1040 ------- 1 0.0 5.0 15 29
r 0.648328 6 1 ack 40 ------- 1 5.0 0.0 14 30
+ 0.648328 1 0 ack 40 ------- 1 5.0 0.0 14 30
- 0.648328 1 0 ack 40 ------- 1 5.0 0.0 14 30
+ 0.65 0 1 tcp 1040 ------- 1 0.0 5.0 16 31
- 0.65 0 1 tcp 1040 ------- 1 0.0 5.0 16 31
r 0.658324 6 5 tcp 1040 ------- 1 0.0 5.0 15 29
h 0.658324 5 6 ack 40 ------- 1 5.0 0.0 15 32
r 0.658648 1 0 ack 40 ------- 1 5.0 0.0 14 30
r 0.66832 0 1 tcp 1040 ------- 1 0.0 5.0 16 31
h 0.66832 1 6 tcp 1040 ------- 1 0.0 5.0 16 31
+ 0.668324 5 6 ack 40 ------- 1 5.0 0.0 15 32
- 0.668324 5 6 ack 40 ------- 1 5.0 0.0 15 32
d 0.668328 4 6 ack 40 ------- 1 5.0 0.0 15 32
d 0.668328 3 6 ack 40 ------- 1 5.0 0.0 15 32
d 0.668328 2 6 ack 40 ------- 1 5.0 0.0 15 32
+ 0.67832 1 6 tcp 1040 ------- 1 0.0 5.0 16 31
- 0.67832 1 6 tcp 1040 ------- 1 0.0 5.0 16 31
d 0.678324 4 6 tcp 1040 ------- 1 0.0 5.0 16 31
d 0.678324 3 6 tcp 1040 ------- 1 0.0 5.0 16 31
d 0.678324 2 6 tcp 1040 ------- 1 0.0 5.0 16 31
r 0.678328 6 1 ack 40 ------- 1 5.0 0.0 15 32
+ 0.678328 1 0 ack 40 ------- 1 5.0 0.0 15 32
- 0.678328 1 0 ack 40 ------- 1 5.0 0.0 15 32
+ 0.68 0 1 tcp 1040 ------- 1 0.0 5.0 17 33
- 0.68 0 1 tcp 1040 ------- 1 0.0 5.0 17 33
r 0.688324 6 5 tcp 1040 ------- 1 0.0 5.0 16 31
h 0.688324 5 6 ack 40 ------- 1 5.0 0.0 16 34
r 0.688648 1 0 ack 40 ------- 1 5.0 0.0 15 32
r 0.69832 0 1 tcp 1040 ------- 1 0.0 5.0 17 33
h 0.69832 1 6 tcp 1040 ------- 1 0.0 5.0 17 33
+ 0.698324 5 6 ack 40 ------- 1 5.0 0.0 16 34
- 0.698324 5 6 ack 40 ------- 1 5.0 0.0 16 34
d 0.698328 4 6 ack 40 ------- 1 5.0 0.0 16 34
d 0.698328 3 6 ack 40 ------- 1 5.0 0.0 16 34
d 0.698328 2 6 ack 40 ------- 1 5.0 0.0 16 34
+ 0.70832 1 6 tcp 1040 ------- 1 0.0 5.0 17 33
- 0.70832 1 6 tcp 1040 ------- 1 0.0 5.0 17 33
d 0.708324 4 6 tcp 1040 ------- 1 0.0 5.0 17 33
d 0.708324 3 6 tcp 1040 ------- 1 0.0 5.0 17 33
d 0.708324 2 6 tcp 1040 ------- 1 0.0 5.0 17 33
r 0.708328 6 1 ack 40 ------- 1 5.0 0.0 16 34
+ 0.708328 1 0 ack 40 ------- 1 5.0 0.0 16 34
- 0.708328 1 0 ack 40 ------- 1 5.0 0.0 16 34
+ 0.71 0 1 tcp 1040 ------- 1 0.0 5.0 18 35
- 0.71 0 1 tcp 1040 ------- 1 0.0 5.0 18 35
r 0.718324 6 5 tcp 1040 ------- 1 0.0 5.0 17 33
h 0.718324 5 6 ack 40 ------- 1 5.0 0.0 17 36
r 0.718648 1 0 ack 40 ------- 1 5.0 0.0 16 34
r 0.72832 0 1 tcp 1040 ------- 1 0.0 5.0 18 35
h 0.72832 1 6 tcp 1040 ------- 1 0.0 5.0 18 35
+ 0.728324 5 6 ack 40 ------- 1 5.0 0.0 17 36
- 0.728324 5 6 ack 40 ------- 1 5.0 0.0 17 36
d 0.728328 4 6 ack 40 ------- 1 5.0 0.0 17 36
d 0.728328 3 6 ack 40 ------- 1 5.0 0.0 17 36
d 0.728328 2 6 ack 40 ------- 1 5.0 0.0 17 36
+ 0.73832 1 6 tcp 1040 ------- 1 0.0 5.0 18 35
- 0.73832 1 6 tcp 1040 ------- 1 0.0 5.0 18 35
d 0.738324 4 6 tcp 1040 ------- 1 0.0 5.0 18 35
d 0.738324 3 6 tcp 1040 ------- 1 0.0 5.0 18 35
d 0.738324 2 6 tcp 1040 ------- 1 0.0 5.0 18 35
r 0.738328 6 1 ack 40 ------- 1 5.0 0.0 17 36
+ 0.738328 1 0 ack 40 ------- 1 5.0 0.0 17 36
- 0.738328 1 0 ack 40 ------- 1 5.0 0.0 17 36
+ 0.74 0 1 tcp 1040 ------- 1 0.0 5.0 19 37
- 0.74 0 1 tcp 1040 ------- 1 0.0 5.0 19 37
r 0.748324 6 5 tcp 1040 ------- 1 0.0 5.0 18 35
h 0.748324 5 6 ack 40 ------- 1 5.0 0.0 18 38
r 0.748648 1 0 ack 40 ------- 1 5.0 0.0 17 36
r 0.75832 0 1 tcp 1040 ------- 1 0.0 5.0 19 37
h 0.75832 1 6 tcp 1040 ------- 1 0.0 5.0 19 37
+ 0.758324 5 6 ack 40 ------- 1 5.0 0.0 18 38
- 0.758324 5 6 ack 40 ------- 1 5.0 0.0 18 38
d 0.758328 4 6 ack 40 ------- 1 5.0 0.0 18 38
d 0.758328 3 6 ack 40 ------- 1 5.0 0.0 18 38
d 0.758328 2 6 ack 40 ------- 1 5.0 0.0 18 38
+ 0.76832 1 6 tcp 1040 ------- 1 0.0 5.0 19 37
- 0.76832 1 6 tcp 1040 ------- 1 0.0 5.0 19 37
d 0.768324 4 6 tcp 1040 ------- 1 0.0 5.0 19 37
d 0.768324 3 6 tcp 1040 ------- 1 0.0 5.0 19 37
d 0.768324 2 6 tcp 1040 ------- 1 0.0 5.0 19 37
r 0.768328 6 1 ack 40 ------- 1 5.0 0.0 18 38
+ 0.768328 1 0 ack 40 ------- 1 5.0 0.0 18 38
- 0.768328 1 0 ack 40 ------- 1 5.0 0.0 18 38
+ 0.77 0 1 tcp 1040 ------- 1 0.0 5.0 20 39
- 0.77 0 1 tcp 1040 ------- 1 0.0 5.0 20 39
r 0.778324 6 5 tcp 1040 ------- 1 0.0 5.0 19 37
h 0.778324 5 6 ack 40 ------- 1 5.0 0.0 19 40
r 0.778648 1 0 ack 40 ------- 1 5.0 0.0 18 38
r 0.78832 0 1 tcp 1040 ------- 1 0.0 5.0 20 39
h 0.78832 1 6 tcp 1040 ------- 1 0.0 5.0 20 39
+ 0.788324 5 6 ack 40 ------- 1 5.0 0.0 19 40
- 0.788324 5 6 ack 40 ------- 1 5.0 0.0 19 40
d 0.788328 4 6 ack 40 ------- 1 5.0 0.0 19 40
d 0.788328 3 6 ack 40 ------- 1 5.0 0.0 19 40
d 0.788328 2 6 ack 40 ------- 1 5.0 0.0 19 40
+ 0.79832 1 6 tcp 1040 ------- 1 0.0 5.0 20 39
- 0.79832 1 6 tcp 1040 ------- 1 0.0 5.0 20 39
d 0.798324 4 6 tcp 1040 ------- 1 0.0 5.0 20 39
d 0.798324 3 6 tcp 1040 ------- 1 0.0 5.0 20 39
d 0.798324 2 6 tcp 1040 ------- 1 0.0 5.0 20 39
r 0.798328 6 1 ack 40 ------- 1 5.0 0.0 19 40
+ 0.798328 1 0 ack 40 ------- 1 5.0 0.0 19 40
- 0.798328 1 0 ack 40 ------- 1 5.0 0.0 19 40
+ 0.8 0 1 tcp 1040 ------- 1 0.0 5.0 21 41
- 0.8 0 1 tcp 1040 ------- 1 0.0 5.0 21 41
r 0.808324 6 5 tcp 1040 ------- 1 0.0 5.0 20 39
h 0.808324 5 6 ack 40 ------- 1 5.0 0.0 20 42
r 0.808648 1 0 ack 40 ------- 1 5.0 0.0 19 40
r 0.81832 0 1 tcp 1040 ------- 1 0.0 5.0 21 41
h 0.81832 1 6 tcp 1040 ------- 1 0.0 5.0 21 41
+ 0.818324 5 6 ack 40 ------- 1 5.0 0.0 20 42
- 0.818324 5 6 ack 40 ------- 1 5.0 0.0 20 42
d 0.818328 4 6 ack 40 ------- 1 5.0 0.0 20 42
d 0.818328 3 6 ack 40 ------- 1 5.0 0.0 20 42
d 0.818328 2 6 ack 40 ------- 1 5.0 0.0 20 42
+ 0.82832 1 6 tcp 1040 ------- 1 0.0 5.0 21 41
- 0.82832 1 6 tcp 1040 ------- 1 0.0 5.0 21 41
d 0.828324 4 6 tcp 1040 ------- 1 0.0 5.0 21 41
d 0.828324 3 6 tcp 1040 ------- 1 0.0 5.0 21 41
d 0.828324 2 6 tcp 1040 ------- 1 0.0 5.0 21 41
r 0.828328 6 1 ack 40 ------- 1 5.0 0.0 20 42
+ 0.828328 1 0 ack 40 ------- 1 5.0 0.0 20 42
- 0.828328 1 0 ack 40 ------- 1 5.0 0.0 20 42
+ 0.83 0 1 tcp 1040 ------- 1 0.0 5.0 22 43
- 0.83 0 1 tcp 1040 ------- 1 0.0 5.0 22 43
r 0.838324 6 5 tcp 1040 ------- 1 0.0 5.0 21 41
h 0.838324 5 6 ack 40 ------- 1 5.0 0.0 21 44
r 0.838648 1 0 ack 40 ------- 1 5.0 0.0 20 42
r 0.84832 0 1 tcp 1040 ------- 1 0.0 5.0 22 43
h 0.84832 1 6 tcp 1040 ------- 1 0.0 5.0 22 43
+ 0.848324 5 6 ack 40 ------- 1 5.0 0.0 21 44
- 0.848324 5 6 ack 40 ------- 1 5.0 0.0 21 44
d 0.848328 4 6 ack 40 ------- 1 5.0 0.0 21 44
d 0.848328 3 6 ack 40 ------- 1 5.0 0.0 21 44
d 0.848328 2 6 ack 40 ------- 1 5.0 0.0 21 44
+ 0.85832 1 6 tcp 1040 ------- 1 0.0 5.0 22 43
- 0.85832 1 6 tcp 1040 ------- 1 0.0 5.0 22 43
d 0.858324 4 6 tcp 1040 ------- 1 0.0 5.0 22 43
d 0.858324 3 6 tcp 1040 ------- 1 0.0 5.0 22 43
d 0.858324 2 6 tcp 1040 ------- 1 0.0 5.0 22 43
r 0.858328 6 1 ack 40 ------- 1 5.0 0.0 21 44
+ 0.858328 1 0 ack 40 ------- 1 5.0 0.0 21 44
- 0.858328 1 0 ack 40 ------- 1 5.0 0.0 21 44
+ 0.86 0 1 tcp 1040 ------- 1 0.0 5.0 23 45
- 0.86 0 1 tcp 1040 ------- 1 0.0 5.0 23 45
r 0.868324 6 5 tcp 1040 ------- 1 0.0 5.0 22 43
h 0.868324 5 6 ack 40 ------- 1 5.0 0.0 22 46
r 0.868648 1 0 ack 40 ------- 1 5.0 0.0 21 44
r 0.87832 0 1 tcp 1040 ------- 1 0.0 5.0 23 45
h 0.87832 1 6 tcp 1040 ------- 1 0.0 5.0 23 45
+ 0.878324 5 6 ack 40 ------- 1 5.0 0.0 22 46
- 0.878324 5 6 ack 40 ------- 1 5.0 0.0 22 46
d 0.878328 4 6 ack 40 ------- 1 5.0 0.0 22 46
d 0.878328 3 6 ack 40 ------- 1 5.0 0.0 22 46
d 0.878328 2 6 ack 40 ------- 1 5.0 0.0 22 46
+ 0.88832 1 6 tcp 1040 ------- 1 0.0 5.0 23 45
- 0.88832 1 6 tcp 1040 ------- 1 0.0 5.0 23 45
d 0.888324 4 6 tcp 1040 ------- 1 0.0 5.0 23 45
d 0.888324 3 6 tcp 1040 ------- 1 0.0 5.0 23 45
d 0.888324 2 6 tcp 1040 ------- 1 0.0 5.0 23 45
r 0.888328 6 1 ack 40 ------- 1 5.0 0.0 22 46
+ 0.888328 1 0 ack 40 ------- 1 5.0 0.0 22 46
- 0.888328 1 0 ack 40 ------- 1 5.0 0.0 22 46
+ 0.89 0 1 tcp 1040 ------- 1 0.0 5.0 24 47
- 0.89 0 1 tcp 1040 ------- 1 0.0 5.0 24 47
r 0.898324 6 5 tcp 1040 ------- 1 0.0 5.0 23 45
h 0.898324 5 6 ack 40 ------- 1 5.0 0.0 23 48
r 0.898648 1 0 ack 40 ------- 1 5.0 0.0 22 46
r 0.90832 0 1 tcp 1040 ------- 1 0.0 5.0 24 47
h 0.90832 1 6 tcp 1040 ------- 1 0.0 5.0 24 47
+ 0.908324 5 6 ack 40 ------- 1 5.0 0.0 23 48
- 0.908324 5 6 ack 40 ------- 1 5.0 0.0 23 48
d 0.908328 4 6 ack 40 ------- 1 5.0 0.0 23 48
d 0.908328 3 6 ack 40 ------- 1 5.0 0.0 23 48
d 0.908328 2 6 ack 40 ------- 1 5.0 0.0 23 48
+ 0.91832 1 6 tcp 1040 ------- 1 0.0 5.0 24 47
- 0.91832 1 6 tcp 1040 ------- 1 0.0 5.0 24 47
d 0.918324 4 6 tcp 1040 ------- 1 0.0 5.0 24 47
d 0.918324 3 6 tcp 1040 ------- 1 0.0 5.0 24 47
d 0.918324 2 6 tcp 1040 ------- 1 0.0 5.0 24 47
r 0.918328 6 1 ack 40 ------- 1 5.0 0.0 23 48
+ 0.918328 1 0 ack 40 ------- 1 5.0 0.0 23 48
- 0.918328 1 0 ack 40 ------- 1 5.0 0.0 23 48
+ 0.92 0 1 tcp 1040 ------- 1 0.0 5.0 25 49
- 0.92 0 1 tcp 1040 ------- 1 0.0 5.0 25 49
r 0.928324 6 5 tcp 1040 ------- 1 0.0 5.0 24 47
h 0.928324 5 6 ack 40 ------- 1 5.0 0.0 24 50
r 0.928648 1 0 ack 40 ------- 1 5.0 0.0 23 48
r 0.93832 0 1 tcp 1040 ------- 1 0.0 5.0 25 49
h 0.93832 1 6 tcp 1040 ------- 1 0.0 5.0 25 49
+ 0.938324 5 6 ack 40 ------- 1 5.0 0.0 24 50
- 0.938324 5 6 ack 40 ------- 1 5.0 0.0 24 50
d 0.938328 4 6 ack 40 ------- 1 5.0 0.0 24 50
d 0.938328 3 6 ack 40 ------- 1 5.0 0.0 24 50
d 0.938328 2 6 ack 40 ------- 1 5.0 0.0 24 50
+ 0.94832 1 6 tcp 1040 ------- 1 0.0 5.0 25 49
- 0.94832 1 6 tcp 1040 ------- 1 0.0 5.0 25 49
d 0.948324 4 6 tcp 1040 ------- 1 0.0 5.0 25 49
d 0.948324 3 6 tcp 1040 ------- 1 0.0 5.0 25 49
d 0.948324 2 6 tcp 1040 ------- 1 0.0 5.0 25 49
r 0.948328 6 1 ack 40 ------- 1 5.0 0.0 24 50
+ 0.948328 1 0 ack 40 ------- 1 5.0 0.0 24 50
- 0.948328 1 0 ack 40 ------- 1 5.0 0.0 24 50
+ 0.95 0 1 tcp 1040 ------- 1 0.0 5.0 26 51
- 0.95 0 1 tcp 1040 ------- 1 0.0 5.0 26 51
r 0.958324 6 5 tcp 1040 ------- 1 0.0 5.0 25 49
h 0.958324 5 6 ack 40 ------- 1 5.0 0.0 25 52
r 0.958648 1 0 ack 40 ------- 1 5.0 0.0 24 50
r 0.96832 0 1 tcp 1040 ------- 1 0.0 5.0 26 51
h 0.96832 1 6 tcp 1040 ------- 1 0.0 5.0 26 51
+ 0.968324 5 6 ack 40 ------- 1 5.0 0.0 25 52
- 0.968324 5 6 ack 40 ------- 1 5.0 0.0 25 52
d 0.968328 4 6 ack 40 ------- 1 5.0 0.0 25 52
d 0.968328 3 6 ack 40 ------- 1 5.0 0.0 25 52
d 0.968328 2 6 ack 40 ------- 1 5.0 0.0 25 52
+ 0.97832 1 6 tcp 1040 ------- 1 0.0 5.0 26 51
- 0.97832 1 6 tcp 1040 ------- 1 0.0 5.0 26 51
d 0.978324 4 6 tcp 1040 ------- 1 0.0 5.0 26 51
d 0.978324 3 6 tcp 1040 ------- 1 0.0 5.0 26 51
d 0.978324 2 6 tcp 1040 ------- 1 0.0 5.0 26 51
r 0.978328 6 1 ack 40 ------- 1 5.0 0.0 25 52
+ 0.978328 1 0 ack 40 ------- 1 5.0 0.0 25 52
- 0.978328 1 0 ack 40 ------- 1 5.0 0.0 25 52
+ 0.98 0 1 tcp 1040 ------- 1 0.0 5.0 27 53
- 0.98 0 1 tcp 1040 ------- 1 0.0 5.0 27 53
r 0.988324 6 5 tcp 1040 ------- 1 0.0 5.0 26 51
h 0.988324 5 6 ack 40 ------- 1 5.0 0.0 26 54
r 0.988648 1 0 ack 40 ------- 1 5.0 0.0 25 52
r 0.99832 0 1 tcp 1040 ------- 1 0.0 5.0 27 53
h 0.99832 1 6 tcp 1040 ------- 1 0.0 5.0 27 53
+ 0.998324 5 6 ack 40 ------- 1 5.0 0.0 26 54
- 0.998324 5 6 ack 40 ------- 1 5.0 0.0 26 54
d 0.998328 4 6 ack 40 ------- 1 5.0 0.0 26 54
d 0.998328 3 6 ack 40 ------- 1 5.0 0.0 26 54
d 0.998328 2 6 ack 40 ------- 1 5.0 0.0 26 54
+ 1.00832 1 6 tcp 1040 ------- 1 0.0 5.0 27 53
- 1.00832 1 6 tcp 1040 ------- 1 0.0 5.0 27 53
d 1.008324 4 6 tcp 1040 ------- 1 0.0 5.0 27 53
d 1.008324 3 6 tcp 1040 ------- 1 0.0 5.0 27 53
d 1.008324 2 6 tcp 1040 ------- 1 0.0 5.0 27 53
r 1.008328 6 1 ack 40 ------- 1 5.0 0.0 26 54
+ 1.008328 1 0 ack 40 ------- 1 5.0 0.0 26 54
- 1.008328 1 0 ack 40 ------- 1 5.0 0.0 26 54
+ 1.01 0 1 tcp 1040 ------- 1 0.0 5.0 28 55
- 1.01 0 1 tcp 1040 ------- 1 0.0 5.0 28 55
r 1.018324 6 5 tcp 1040 ------- 1 0.0 5.0 27 53
h 1.018324 5 6 ack 40 ------- 1 5.0 0.0 27 56
r 1.018648 1 0 ack 40 ------- 1 5.0 0.0 26 54
r 1.02832 0 1 tcp 1040 ------- 1 0.0 5.0 28 55
h 1.02832 1 6 tcp 1040 ------- 1 0.0 5.0 28 55
+ 1.028324 5 6 ack 40 ------- 1 5.0 0.0 27 56
- 1.028324 5 6 ack 40 ------- 1 5.0 0.0 27 56
d 1.028328 4 6 ack 40 ------- 1 5.0 0.0 27 56
d 1.028328 3 6 ack 40 ------- 1 5.0 0.0 27 56
d 1.028328 2 6 ack 40 ------- 1 5.0 0.0 27 56
+ 1.03832 1 6 tcp 1040 ------- 1 0.0 5.0 28 55
- 1.03832 1 6 tcp 1040 ------- 1 0.0 5.0 28 55
d 1.038324 4 6 tcp 1040 ------- 1 0.0 5.0 28 55
d 1.038324 3 6 tcp 1040 ------- 1 0.0 5.0 28 55
d 1.038324 2 6 tcp 1040 ------- 1 0.0 5.0 28 55
r 1.038328 6 1 ack 40 ------- 1 5.0 0.0 27 56
+ 1.038328 1 0 ack 40 ------- 1 5.0 0.0 27 56
- 1.038328 1 0 ack 40 ------- 1 5.0 0.0 27 56
+ 1.04 0 1 tcp 1040 ------- 1 0.0 5.0 29 57
- 1.04 0 1 tcp 1040 ------- 1 0.0 5.0 29 57
r 1.048324 6 5 tcp 1040 ------- 1 0.0 5.0 28 55
h 1.048324 5 6 ack 40 ------- 1 5.0 0.0 28 58
r 1.048648 1 0 ack 40 ------- 1 5.0 0.0 27 56
r 1.05832 0 1 tcp 1040 ------- 1 0.0 5.0 29 57
h 1.05832 1 6 tcp 1040 ------- 1 0.0 5.0 29 57
+ 1.058324 5 6 ack 40 ------- 1 5.0 0.0 28 58
- 1.058324 5 6 ack 40 ------- 1 5.0 0.0 28 58
d 1.058328 4 6 ack 40 ------- 1 5.0 0.0 28 58
d 1.058328 3 6 ack 40 ------- 1 5.0 0.0 28 58
d 1.058328 2 6 ack 40 ------- 1 5.0 0.0 28 58
+ 1.06832 1 6 tcp 1040 ------- 1 0.0 5.0 29 57
- 1.06832 1 6 tcp 1040 ------- 1 0.0 5.0 29 57
d 1.068324 4 6 tcp 1040 ------- 1 0.0 5.0 29 57
d 1.068324 3 6 tcp 1040 ------- 1 0.0 5.0 29 57
d 1.068324 2 6 tcp 1040 ------- 1 0.0 5.0 29 57
r 1.068328 6 1 ack 40 ------- 1 5.0 0.0 28 58
+ 1.068328 1 0 ack 40 ------- 1 5.0 0.0 28 58
- 1.068328 1 0 ack 40 ------- 1 5.0 0.0 28 58
+ 1.07 0 1 tcp 1040 ------- 1 0.0 5.0 30 59
- 1.07 0 1 tcp 1040 ------- 1 0.0 5.0 30 59
r 1.078324 6 5 tcp 1040 ------- 1 0.0 5.0 29 57
h 1.078324 5 6 ack 40 ------- 1 5.0 0.0 29 60
r 1.078648 1 0 ack 40 ------- 1 5.0 0.0 28 58
r 1.08832 0 1 tcp 1040 ------- 1 0.0 5.0 30 59
h 1.08832 1 6 tcp 1040 ------- 1 0.0 5.0 30 59
+ 1.088324 5 6 ack 40 ------- 1 5.0 0.0 29 60
- 1.088324 5 6 ack 40 ------- 1 5.0 0.0 29 60
d 1.088328 4 6 ack 40 ------- 1 5.0 0.0 29 60
d 1.088328 3 6 ack 40 ------- 1 5.0 0.0 29 60
d 1.088328 2 6 ack 40 ------- 1 5.0 0.0 29 60
+ 1.09832 1 6 tcp 1040 ------- 1 0.0 5.0 30 59
- 1.09832 1 6 tcp 1040 ------- 1 0.0 5.0 30 59
d 1.098324 4 6 tcp 1040 ------- 1 0.0 5.0 30 59
d 1.098324 3 6 tcp 1040 ------- 1 0.0 5.0 30 59
d 1.098324 2 6 tcp 1040 ------- 1 0.0 5.0 30 59
r 1.098328 6 1 ack 40 ------- 1 5.0 0.0 29 60
+ 1.098328 1 0 ack 40 ------- 1 5.0 0.0 29 60
- 1.098328 1 0 ack 40 ------- 1 5.0 0.0 29 60
+ 1.1 0 1 tcp 1040 ------- 1 0.0 5.0 31 61
- 1.1 0 1 tcp 1040 ------- 1 0.0 5.0 31 61
r 1.108324 6 5 tcp 1040 ------- 1 0.0 5.0 30 59
h 1.108324 5 6 ack 40 ------- 1 5.0 0.0 30 62
r 1.108648 1 0 ack 40 ------- 1 5.0 0.0 29 60
r 1.11832 0 1 tcp 1040 ------- 1 0.0 5.0 31 61
h 1.11832 1 6 tcp 1040 ------- 1 0.0 5.0 31 61
+ 1.118324 5 6 ack 40 ------- 1 5.0 0.0 30 62
- 1.118324 5 6 ack 40 ------- 1 5.0 0.0 30 62
d 1.118328 4 6 ack 40 ------- 1 5.0 0.0 30 62
d 1.118328 3 6 ack 40 ------- 1 5.0 0.0 30 62
d 1.118328 2 6 ack 40 ------- 1 5.0 0.0 30 62
+ 1.12832 1 6 tcp 1040 ------- 1 0.0 5.0 31 61
- 1.12832 1 6 tcp 1040 ------- 1 0.0 5.0 31 61
d 1.128324 4 6 tcp 1040 ------- 1 0.0 5.0 31 61
d 1.128324 3 6 tcp 1040 ------- 1 0.0 5.0 31 61
d 1.128324 2 6 tcp 1040 ------- 1 0.0 5.0 31 61
r 1.128328 6 1 ack 40 ------- 1 5.0 0.0 30 62
+ 1.128328 1 0 ack 40 ------- 1 5.0 0.0 30 62
- 1.128328 1 0 ack 40 ------- 1 5.0 0.0 30 62
+ 1.13 0 1 tcp 1040 ------- 1 0.0 5.0 32 63
- 1.13 0 1 tcp 1040 ------- 1 0.0 5.0 32 63
r 1.138324 6 5 tcp 1040 ------- 1 0.0 5.0 31 61
h 1.138324 5 6 ack 40 ------- 1 5.0 0.0 31 64
r 1.138648 1 0 ack 40 ------- 1 5.0 0.0 30 62
r 1.14832 0 1 tcp 1040 ------- 1 0.0 5.0 32 63
h 1.14832 1 6 tcp 1040 ------- 1 0.0 5.0 32 63
+ 1.148324 5 6 ack 40 ------- 1 5.0 0.0 31 64
- 1.148324 5 6 ack 40 ------- 1 5.0 0.0 31 64
d 1.148328 4 6 ack 40 ------- 1 5.0 0.0 31 64
d 1.148328 3 6 ack 40 ------- 1 5.0 0.0 31 64
d 1.148328 2 6 ack 40 ------- 1 5.0 0.0 31 64
+ 1.15832 1 6 tcp 1040 ------- 1 0.0 5.0 32 63
- 1.15832 1 6 tcp 1040 ------- 1 0.0 5.0 32 63
d 1.158324 4 6 tcp 1040 ------- 1 0.0 5.0 32 63
d 1.158324 3 6 tcp 1040 ------- 1 0.0 5.0 32 63
d 1.158324 2 6 tcp 1040 ------- 1 0.0 5.0 32 63
r 1.158328 6 1 ack 40 ------- 1 5.0 0.0 31 64
+ 1.158328 1 0 ack 40 ------- 1 5.0 0.0 31 64
- 1.158328 1 0 ack 40 ------- 1 5.0 0.0 31 64
+ 1.16 0 1 tcp 1040 ------- 1 0.0 5.0 33 65
- 1.16 0 1 tcp 1040 ------- 1 0.0 5.0 33 65
r 1.168324 6 5 tcp 1040 ------- 1 0.0 5.0 32 63
h 1.168324 5 6 ack 40 ------- 1 5.0 0.0 32 66