+ 0.1 1 0 tcp 40 ------- 1 1.0 3.0 0 0
- 0.1 1 0 tcp 40 ------- 1 1.0 3.0 0 0
r 0.110625 1 0 tcp 40 ------- 1 1.0 3.0 0 0
+ 0.110625 0 3 tcp 40 ------- 1 1.0 3.0 0 0
- 0.110625 0 3 tcp 40 ------- 1 1.0 3.0 0 0
r 0.12125 0 3 tcp 40 ------- 1 1.0 3.0 0 0
+ 0.12125 3 0 ack 40 ------- 1 3.0 1.0 0 1
- 0.12125 3 0 ack 40 ------- 1 3.0 1.0 0 1
r 0.131875 3 0 ack 40 ------- 1 3.0 1.0 0 1
+ 0.131875 0 1 ack 40 ------- 1 3.0 1.0 0 1
- 0.131875 0 1 ack 40 ------- 1 3.0 1.0 0 1
r 0.1425 0 1 ack 40 ------- 1 3.0 1.0 0 1
+ 0.1425 1 0 tcp 1040 ------- 1 1.0 3.0 1 2
- 0.1425 1 0 tcp 1040 ------- 1 1.0 3.0 1 2
+ 0.1425 1 0 tcp 1040 ------- 1 1.0 3.0 2 3
- 0.15875 1 0 tcp 1040 ------- 1 1.0 3.0 2 3
r 0.16875 1 0 tcp 1040 ------- 1 1.0 3.0 1 2
+ 0.16875 0 3 tcp 1040 ------- 1 1.0 3.0 1 2
- 0.16875 0 3 tcp 1040 ------- 1 1.0 3.0 1 2
r 0.185 1 0 tcp 1040 ------- 1 1.0 3.0 2 3
+ 0.185 0 3 tcp 1040 ------- 1 1.0 3.0 2 3
- 0.185 0 3 tcp 1040 ------- 1 1.0 3.0 2 3
r 0.195 0 3 tcp 1040 ------- 1 1.0 3.0 1 2
+ 0.195 3 0 ack 40 ------- 1 3.0 1.0 1 4
- 0.195 3 0 ack 40 ------- 1 3.0 1.0 1 4
+ 0.2 2 0 cbr 210 ------- 2 2.0 4.0 0 5
- 0.2 2 0 cbr 210 ------- 2 2.0 4.0 0 5
r 0.205625 3 0 ack 40 ------- 1 3.0 1.0 1 4
+ 0.205625 0 1 ack 40 ------- 1 3.0 1.0 1 4
- 0.205625 0 1 ack 40 ------- 1 3.0 1.0 1 4
+ 0.206563 2 0 cbr 210 ------- 2 2.0 4.0 1 6
- 0.206563 2 0 cbr 210 ------- 2 2.0 4.0 1 6
r 0.21125 0 3 tcp 1040 ------- 1 1.0 3.0 2 3
+ 0.21125 3 0 ack 40 ------- 1 3.0 1.0 2 7
- 0.21125 3 0 ack 40 ------- 1 3.0 1.0 2 7
+ 0.213125 2 0 cbr 210 ------- 2 2.0 4.0 2 8
- 0.213125 2 0 cbr 210 ------- 2 2.0 4.0 2 8
r 0.213281 2 0 cbr 210 ------- 2 2.0 4.0 0 5
+ 0.213281 0 4 cbr 210 ------- 2 2.0 4.0 0 5
- 0.213281 0 4 cbr 210 ------- 2 2.0 4.0 0 5
r 0.21625 0 1 ack 40 ------- 1 3.0 1.0 1 4
+ 0.21625 1 0 tcp 1040 ------- 1 1.0 3.0 3 9
- 0.21625 1 0 tcp 1040 ------- 1 1.0 3.0 3 9
+ 0.21625 1 0 tcp 1040 ------- 1 1.0 3.0 4 10
+ 0.219688 2 0 cbr 210 ------- 2 2.0 4.0 3 11
- 0.219688 2 0 cbr 210 ------- 2 2.0 4.0 3 11
r 0.219844 2 0 cbr 210 ------- 2 2.0 4.0 1 6
+ 0.219844 0 4 cbr 210 ------- 2 2.0 4.0 1 6
- 0.219844 0 4 cbr 210 ------- 2 2.0 4.0 1 6
r 0.221875 3 0 ack 40 ------- 1 3.0 1.0 2 7
+ 0.221875 0 1 ack 40 ------- 1 3.0 1.0 2 7
- 0.221875 0 1 ack 40 ------- 1 3.0 1.0 2 7
+ 0.22625 2 0 cbr 210 ------- 2 2.0 4.0 4 12
- 0.22625 2 0 cbr 210 ------- 2 2.0 4.0 4 12
r 0.226406 2 0 cbr 210 ------- 2 2.0 4.0 2 8
+ 0.226406 0 4 cbr 210 ------- 2 2.0 4.0 2 8
- 0.226406 0 4 cbr 210 ------- 2 2.0 4.0 2 8
r 0.226563 0 4 cbr 210 ------- 2 2.0 4.0 0 5
- 0.2325 1 0 tcp 1040 ------- 1 1.0 3.0 4 10
r 0.2325 0 1 ack 40 ------- 1 3.0 1.0 2 7
+ 0.2325 1 0 tcp 1040 ------- 1 1.0 3.0 5 13
+ 0.2325 1 0 tcp 1040 ------- 1 1.0 3.0 6 14
+ 0.232813 2 0 cbr 210 ------- 2 2.0 4.0 5 15
- 0.232813 2 0 cbr 210 ------- 2 2.0 4.0 5 15
r 0.232969 2 0 cbr 210 ------- 2 2.0 4.0 3 11
+ 0.232969 0 4 cbr 210 ------- 2 2.0 4.0 3 11
- 0.232969 0 4 cbr 210 ------- 2 2.0 4.0 3 11
r 0.233125 0 4 cbr 210 ------- 2 2.0 4.0 1 6
+ 0.239375 2 0 cbr 210 ------- 2 2.0 4.0 6 16
- 0.239375 2 0 cbr 210 ------- 2 2.0 4.0 6 16
r 0.239531 2 0 cbr 210 ------- 2 2.0 4.0 4 12
+ 0.239531 0 4 cbr 210 ------- 2 2.0 4.0 4 12
- 0.239531 0 4 cbr 210 ------- 2 2.0 4.0 4 12
r 0.239688 0 4 cbr 210 ------- 2 2.0 4.0 2 8
r 0.2425 1 0 tcp 1040 ------- 1 1.0 3.0 3 9
+ 0.2425 0 3 tcp 1040 ------- 1 1.0 3.0 3 9
- 0.2425 0 3 tcp 1040 ------- 1 1.0 3.0 3 9
+ 0.245938 2 0 cbr 210 ------- 2 2.0 4.0 7 17
- 0.245938 2 0 cbr 210 ------- 2 2.0 4.0 7 17
r 0.246094 2 0 cbr 210 ------- 2 2.0 4.0 5 15
+ 0.246094 0 4 cbr 210 ------- 2 2.0 4.0 5 15
- 0.246094 0 4 cbr 210 ------- 2 2.0 4.0 5 15
r 0.24625 0 4 cbr 210 ------- 2 2.0 4.0 3 11
- 0.24875 1 0 tcp 1040 ------- 1 1.0 3.0 5 13
+ 0.2525 2 0 cbr 210 ------- 2 2.0 4.0 8 18
- 0.2525 2 0 cbr 210 ------- 2 2.0 4.0 8 18
r 0.252656 2 0 cbr 210 ------- 2 2.0 4.0 6 16
+ 0.252656 0 4 cbr 210 ------- 2 2.0 4.0 6 16
- 0.252656 0 4 cbr 210 ------- 2 2.0 4.0 6 16
r 0.252813 0 4 cbr 210 ------- 2 2.0 4.0 4 12
r 0.25875 1 0 tcp 1040 ------- 1 1.0 3.0 4 10
+ 0.25875 0 3 tcp 1040 ------- 1 1.0 3.0 4 10
- 0.25875 0 3 tcp 1040 ------- 1 1.0 3.0 4 10
+ 0.259063 2 0 cbr 210 ------- 2 2.0 4.0 9 19
- 0.259063 2 0 cbr 210 ------- 2 2.0 4.0 9 19
r 0.259219 2 0 cbr 210 ------- 2 2.0 4.0 7 17
+ 0.259219 0 4 cbr 210 ------- 2 2.0 4.0 7 17
- 0.259219 0 4 cbr 210 ------- 2 2.0 4.0 7 17
r 0.259375 0 4 cbr 210 ------- 2 2.0 4.0 5 15
- 0.265 1 0 tcp 1040 ------- 1 1.0 3.0 6 14
+ 0.265625 2 0 cbr 210 ------- 2 2.0 4.0 10 20
- 0.265625 2 0 cbr 210 ------- 2 2.0 4.0 10 20
r 0.265781 2 0 cbr 210 ------- 2 2.0 4.0 8 18
+ 0.265781 0 4 cbr 210 ------- 2 2.0 4.0 8 18
- 0.265781 0 4 cbr 210 ------- 2 2.0 4.0 8 18
r 0.265938 0 4 cbr 210 ------- 2 2.0 4.0 6 16
r 0.26875 0 3 tcp 1040 ------- 1 1.0 3.0 3 9
+ 0.26875 3 0 ack 40 ------- 1 3.0 1.0 3 21
- 0.26875 3 0 ack 40 ------- 1 3.0 1.0 3 21
+ 0.272188 2 0 cbr 210 ------- 2 2.0 4.0 11 22
- 0.272188 2 0 cbr 210 ------- 2 2.0 4.0 11 22
r 0.272344 2 0 cbr 210 ------- 2 2.0 4.0 9 19
+ 0.272344 0 4 cbr 210 ------- 2 2.0 4.0 9 19
- 0.272344 0 4 cbr 210 ------- 2 2.0 4.0 9 19
r 0.2725 0 4 cbr 210 ------- 2 2.0 4.0 7 17
r 0.275 1 0 tcp 1040 ------- 1 1.0 3.0 5 13
+ 0.275 0 3 tcp 1040 ------- 1 1.0 3.0 5 13
- 0.275 0 3 tcp 1040 ------- 1 1.0 3.0 5 13
+ 0.27875 2 0 cbr 210 ------- 2 2.0 4.0 12 23
- 0.27875 2 0 cbr 210 ------- 2 2.0 4.0 12 23
r 0.278906 2 0 cbr 210 ------- 2 2.0 4.0 10 20
+ 0.278906 0 4 cbr 210 ------- 2 2.0 4.0 10 20
- 0.278906 0 4 cbr 210 ------- 2 2.0 4.0 10 20
r 0.279063 0 4 cbr 210 ------- 2 2.0 4.0 8 18
r 0.279375 3 0 ack 40 ------- 1 3.0 1.0 3 21
+ 0.279375 0 1 ack 40 ------- 1 3.0 1.0 3 21
- 0.279375 0 1 ack 40 ------- 1 3.0 1.0 3 21
r 0.285 0 3 tcp 1040 ------- 1 1.0 3.0 4 10
+ 0.285 3 0 ack 40 ------- 1 3.0 1.0 4 24
- 0.285 3 0 ack 40 ------- 1 3.0 1.0 4 24
+ 0.285313 2 0 cbr 210 ------- 2 2.0 4.0 13 25
- 0.285313 2 0 cbr 210 ------- 2 2.0 4.0 13 25
r 0.285469 2 0 cbr 210 ------- 2 2.0 4.0 11 22
+ 0.285469 0 4 cbr 210 ------- 2 2.0 4.0 11 22
- 0.285469 0 4 cbr 210 ------- 2 2.0 4.0 11 22
r 0.285625 0 4 cbr 210 ------- 2 2.0 4.0 9 19
r 0.29 0 1 ack 40 ------- 1 3.0 1.0 3 21
+ 0.29 1 0 tcp 1040 ------- 1 1.0 3.0 7 26
- 0.29 1 0 tcp 1040 ------- 1 1.0 3.0 7 26
+ 0.29 1 0 tcp 1040 ------- 1 1.0 3.0 8 27
r 0.29125 1 0 tcp 1040 ------- 1 1.0 3.0 6 14
+ 0.29125 0 3 tcp 1040 ------- 1 1.0 3.0 6 14
- 0.29125 0 3 tcp 1040 ------- 1 1.0 3.0 6 14
+ 0.291875 2 0 cbr 210 ------- 2 2.0 4.0 14 28
- 0.291875 2 0 cbr 210 ------- 2 2.0 4.0 14 28
r 0.292031 2 0 cbr 210 ------- 2 2.0 4.0 12 23
+ 0.292031 0 4 cbr 210 ------- 2 2.0 4.0 12 23
- 0.292031 0 4 cbr 210 ------- 2 2.0 4.0 12 23
r 0.292188 0 4 cbr 210 ------- 2 2.0 4.0 10 20
r 0.295625 3 0 ack 40 ------- 1 3.0 1.0 4 24
+ 0.295625 0 1 ack 40 ------- 1 3.0 1.0 4 24
- 0.295625 0 1 ack 40 ------- 1 3.0 1.0 4 24
+ 0.298438 2 0 cbr 210 ------- 2 2.0 4.0 15 29
- 0.298438 2 0 cbr 210 ------- 2 2.0 4.0 15 29
r 0.298594 2 0 cbr 210 ------- 2 2.0 4.0 13 25
+ 0.298594 0 4 cbr 210 ------- 2 2.0 4.0 13 25
- 0.298594 0 4 cbr 210 ------- 2 2.0 4.0 13 25
r 0.29875 0 4 cbr 210 ------- 2 2.0 4.0 11 22
r 0.30125 0 3 tcp 1040 ------- 1 1.0 3.0 5 13
+ 0.30125 3 0 ack 40 ------- 1 3.0 1.0 5 30
- 0.30125 3 0 ack 40 ------- 1 3.0 1.0 5 30
+ 0.305 2 0 cbr 210 ------- 2 2.0 4.0 16 31
- 0.305 2 0 cbr 210 ------- 2 2.0 4.0 16 31
r 0.305156 2 0 cbr 210 ------- 2 2.0 4.0 14 28
+ 0.305156 0 4 cbr 210 ------- 2 2.0 4.0 14 28
- 0.305156 0 4 cbr 210 ------- 2 2.0 4.0 14 28
r 0.305313 0 4 cbr 210 ------- 2 2.0 4.0 12 23
- 0.30625 1 0 tcp 1040 ------- 1 1.0 3.0 8 27
r 0.30625 0 1 ack 40 ------- 1 3.0 1.0 4 24
+ 0.30625 1 0 tcp 1040 ------- 1 1.0 3.0 9 32
+ 0.30625 1 0 tcp 1040 ------- 1 1.0 3.0 10 33
+ 0.311563 2 0 cbr 210 ------- 2 2.0 4.0 17 34
- 0.311563 2 0 cbr 210 ------- 2 2.0 4.0 17 34
r 0.311719 2 0 cbr 210 ------- 2 2.0 4.0 15 29
+ 0.311719 0 4 cbr 210 ------- 2 2.0 4.0 15 29
- 0.311719 0 4 cbr 210 ------- 2 2.0 4.0 15 29
r 0.311875 3 0 ack 40 ------- 1 3.0 1.0 5 30
+ 0.311875 0 1 ack 40 ------- 1 3.0 1.0 5 30
- 0.311875 0 1 ack 40 ------- 1 3.0 1.0 5 30
r 0.311875 0 4 cbr 210 ------- 2 2.0 4.0 13 25
r 0.31625 1 0 tcp 1040 ------- 1 1.0 3.0 7 26
+ 0.31625 0 3 tcp 1040 ------- 1 1.0 3.0 7 26
- 0.31625 0 3 tcp 1040 ------- 1 1.0 3.0 7 26
r 0.3175 0 3 tcp 1040 ------- 1 1.0 3.0 6 14
+ 0.3175 3 0 ack 40 ------- 1 3.0 1.0 6 35
- 0.3175 3 0 ack 40 ------- 1 3.0 1.0 6 35
+ 0.318125 2 0 cbr 210 ------- 2 2.0 4.0 18 36
- 0.318125 2 0 cbr 210 ------- 2 2.0 4.0 18 36
r 0.318281 2 0 cbr 210 ------- 2 2.0 4.0 16 31
+ 0.318281 0 4 cbr 210 ------- 2 2.0 4.0 16 31
- 0.318281 0 4 cbr 210 ------- 2 2.0 4.0 16 31
r 0.318438 0 4 cbr 210 ------- 2 2.0 4.0 14 28
- 0.3225 1 0 tcp 1040 ------- 1 1.0 3.0 9 32
r 0.3225 0 1 ack 40 ------- 1 3.0 1.0 5 30
+ 0.3225 1 0 tcp 1040 ------- 1 1.0 3.0 11 37
+ 0.3225 1 0 tcp 1040 ------- 1 1.0 3.0 12 38
+ 0.324688 2 0 cbr 210 ------- 2 2.0 4.0 19 39
- 0.324688 2 0 cbr 210 ------- 2 2.0 4.0 19 39
r 0.324844 2 0 cbr 210 ------- 2 2.0 4.0 17 34
+ 0.324844 0 4 cbr 210 ------- 2 2.0 4.0 17 34
- 0.324844 0 4 cbr 210 ------- 2 2.0 4.0 17 34
r 0.325 0 4 cbr 210 ------- 2 2.0 4.0 15 29
r 0.328125 3 0 ack 40 ------- 1 3.0 1.0 6 35
+ 0.328125 0 1 ack 40 ------- 1 3.0 1.0 6 35
- 0.328125 0 1 ack 40 ------- 1 3.0 1.0 6 35
+ 0.33125 2 0 cbr 210 ------- 2 2.0 4.0 20 40
- 0.33125 2 0 cbr 210 ------- 2 2.0 4.0 20 40
r 0.331406 2 0 cbr 210 ------- 2 2.0 4.0 18 36
+ 0.331406 0 4 cbr 210 ------- 2 2.0 4.0 18 36
- 0.331406 0 4 cbr 210 ------- 2 2.0 4.0 18 36
r 0.331563 0 4 cbr 210 ------- 2 2.0 4.0 16 31
r 0.3325 1 0 tcp 1040 ------- 1 1.0 3.0 8 27
+ 0.3325 0 3 tcp 1040 ------- 1 1.0 3.0 8 27
- 0.3325 0 3 tcp 1040 ------- 1 1.0 3.0 8 27
+ 0.337813 2 0 cbr 210 ------- 2 2.0 4.0 21 41
- 0.337813 2 0 cbr 210 ------- 2 2.0 4.0 21 41
r 0.337969 2 0 cbr 210 ------- 2 2.0 4.0 19 39
+ 0.337969 0 4 cbr 210 ------- 2 2.0 4.0 19 39
- 0.337969 0 4 cbr 210 ------- 2 2.0 4.0 19 39
r 0.338125 0 4 cbr 210 ------- 2 2.0 4.0 17 34
- 0.33875 1 0 tcp 1040 ------- 1 1.0 3.0 10 33
r 0.33875 0 1 ack 40 ------- 1 3.0 1.0 6 35
+ 0.33875 1 0 tcp 1040 ------- 1 1.0 3.0 13 42
+ 0.33875 1 0 tcp 1040 ------- 1 1.0 3.0 14 43
r 0.3425 0 3 tcp 1040 ------- 1 1.0 3.0 7 26
+ 0.3425 3 0 ack 40 ------- 1 3.0 1.0 7 44
- 0.3425 3 0 ack 40 ------- 1 3.0 1.0 7 44
+ 0.344375 2 0 cbr 210 ------- 2 2.0 4.0 22 45
- 0.344375 2 0 cbr 210 ------- 2 2.0 4.0 22 45
r 0.344531 2 0 cbr 210 ------- 2 2.0 4.0 20 40
+ 0.344531 0 4 cbr 210 ------- 2 2.0 4.0 20 40
- 0.344531 0 4 cbr 210 ------- 2 2.0 4.0 20 40
r 0.344688 0 4 cbr 210 ------- 2 2.0 4.0 18 36
r 0.34875 1 0 tcp 1040 ------- 1 1.0 3.0 9 32
+ 0.34875 0 3 tcp 1040 ------- 1 1.0 3.0 9 32
- 0.34875 0 3 tcp 1040 ------- 1 1.0 3.0 9 32
+ 0.350938 2 0 cbr 210 ------- 2 2.0 4.0 23 46
- 0.350938 2 0 cbr 210 ------- 2 2.0 4.0 23 46
r 0.351094 2 0 cbr 210 ------- 2 2.0 4.0 21 41
+ 0.351094 0 4 cbr 210 ------- 2 2.0 4.0 21 41
- 0.351094 0 4 cbr 210 ------- 2 2.0 4.0 21 41
r 0.35125 0 4 cbr 210 ------- 2 2.0 4.0 19 39
r 0.353125 3 0 ack 40 ------- 1 3.0 1.0 7 44
+ 0.353125 0 1 ack 40 ------- 1 3.0 1.0 7 44
- 0.353125 0 1 ack 40 ------- 1 3.0 1.0 7 44
- 0.355 1 0 tcp 1040 ------- 1 1.0 3.0 11 37
+ 0.3575 2 0 cbr 210 ------- 2 2.0 4.0 24 47
- 0.3575 2 0 cbr 210 ------- 2 2.0 4.0 24 47
r 0.357656 2 0 cbr 210 ------- 2 2.0 4.0 22 45
+ 0.357656 0 4 cbr 210 ------- 2 2.0 4.0 22 45
- 0.357656 0 4 cbr 210 ------- 2 2.0 4.0 22 45
r 0.357813 0 4 cbr 210 ------- 2 2.0 4.0 20 40
r 0.35875 0 3 tcp 1040 ------- 1 1.0 3.0 8 27
+ 0.35875 3 0 ack 40 ------- 1 3.0 1.0 8 48
- 0.35875 3 0 ack 40 ------- 1 3.0 1.0 8 48
r 0.36375 0 1 ack 40 ------- 1 3.0 1.0 7 44
+ 0.36375 1 0 tcp 1040 ------- 1 1.0 3.0 15 49
+ 0.36375 1 0 tcp 1040 ------- 1 1.0 3.0 16 50
+ 0.364063 2 0 cbr 210 ------- 2 2.0 4.0 25 51
- 0.364063 2 0 cbr 210 ------- 2 2.0 4.0 25 51
r 0.364219 2 0 cbr 210 ------- 2 2.0 4.0 23 46
+ 0.364219 0 4 cbr 210 ------- 2 2.0 4.0 23 46
- 0.364219 0 4 cbr 210 ------- 2 2.0 4.0 23 46
r 0.364375 0 4 cbr 210 ------- 2 2.0 4.0 21 41
r 0.365 1 0 tcp 1040 ------- 1 1.0 3.0 10 33
+ 0.365 0 3 tcp 1040 ------- 1 1.0 3.0 10 33
- 0.365 0 3 tcp 1040 ------- 1 1.0 3.0 10 33
r 0.369375 3 0 ack 40 ------- 1 3.0 1.0 8 48
+ 0.369375 0 1 ack 40 ------- 1 3.0 1.0 8 48
- 0.369375 0 1 ack 40 ------- 1 3.0 1.0 8 48
+ 0.370625 2 0 cbr 210 ------- 2 2.0 4.0 26 52
- 0.370625 2 0 cbr 210 ------- 2 2.0 4.0 26 52
r 0.370781 2 0 cbr 210 ------- 2 2.0 4.0 24 47
+ 0.370781 0 4 cbr 210 ------- 2 2.0 4.0 24 47
- 0.370781 0 4 cbr 210 ------- 2 2.0 4.0 24 47
r 0.370938 0 4 cbr 210 ------- 2 2.0 4.0 22 45
- 0.37125 1 0 tcp 1040 ------- 1 1.0 3.0 12 38
r 0.375 0 3 tcp 1040 ------- 1 1.0 3.0 9 32
+ 0.375 3 0 ack 40 ------- 1 3.0 1.0 9 53
- 0.375 3 0 ack 40 ------- 1 3.0 1.0 9 53
+ 0.377188 2 0 cbr 210 ------- 2 2.0 4.0 27 54
- 0.377188 2 0 cbr 210 ------- 2 2.0 4.0 27 54
r 0.377344 2 0 cbr 210 ------- 2 2.0 4.0 25 51
+ 0.377344 0 4 cbr 210 ------- 2 2.0 4.0 25 51
- 0.377344 0 4 cbr 210 ------- 2 2.0 4.0 25 51
r 0.3775 0 4 cbr 210 ------- 2 2.0 4.0 23 46
r 0.38 0 1 ack 40 ------- 1 3.0 1.0 8 48
+ 0.38 1 0 tcp 1040 ------- 1 1.0 3.0 17 55
+ 0.38 1 0 tcp 1040 ------- 1 1.0 3.0 18 56
r 0.38125 1 0 tcp 1040 ------- 1 1.0 3.0 11 37
+ 0.38125 0 3 tcp 1040 ------- 1 1.0 3.0 11 37
- 0.38125 0 3 tcp 1040 ------- 1 1.0 3.0 11 37
+ 0.38375 2 0 cbr 210 ------- 2 2.0 4.0 28 57
- 0.38375 2 0 cbr 210 ------- 2 2.0 4.0 28 57
r 0.383906 2 0 cbr 210 ------- 2 2.0 4.0 26 52
+ 0.383906 0 4 cbr 210 ------- 2 2.0 4.0 26 52
- 0.383906 0 4 cbr 210 ------- 2 2.0 4.0 26 52
r 0.384063 0 4 cbr 210 ------- 2 2.0 4.0 24 47
r 0.385625 3 0 ack 40 ------- 1 3.0 1.0 9 53
+ 0.385625 0 1 ack 40 ------- 1 3.0 1.0 9 53
- 0.385625 0 1 ack 40 ------- 1 3.0 1.0 9 53
- 0.3875 1 0 tcp 1040 ------- 1 1.0 3.0 13 42
+ 0.390313 2 0 cbr 210 ------- 2 2.0 4.0 29 58
- 0.390313 2 0 cbr 210 ------- 2 2.0 4.0 29 58
r 0.390469 2 0 cbr 210 ------- 2 2.0 4.0 27 54
+ 0.390469 0 4 cbr 210 ------- 2 2.0 4.0 27 54
- 0.390469 0 4 cbr 210 ------- 2 2.0 4.0 27 54
r 0.390625 0 4 cbr 210 ------- 2 2.0 4.0 25 51
r 0.39125 0 3 tcp 1040 ------- 1 1.0 3.0 10 33
+ 0.39125 3 0 ack 40 ------- 1 3.0 1.0 10 59
- 0.39125 3 0 ack 40 ------- 1 3.0 1.0 10 59
r 0.39625 0 1 ack 40 ------- 1 3.0 1.0 9 53
+ 0.39625 1 0 tcp 1040 ------- 1 1.0 3.0 19 60
+ 0.39625 1 0 tcp 1040 ------- 1 1.0 3.0 20 61
+ 0.396875 2 0 cbr 210 ------- 2 2.0 4.0 30 62
- 0.396875 2 0 cbr 210 ------- 2 2.0 4.0 30 62
r 0.397031 2 0 cbr 210 ------- 2 2.0 4.0 28 57
+ 0.397031 0 4 cbr 210 ------- 2 2.0 4.0 28 57
- 0.397031 0 4 cbr 210 ------- 2 2.0 4.0 28 57
r 0.397188 0 4 cbr 210 ------- 2 2.0 4.0 26 52
r 0.3975 1 0 tcp 1040 ------- 1 1.0 3.0 12 38
+ 0.3975 0 3 tcp 1040 ------- 1 1.0 3.0 12 38
- 0.3975 0 3 tcp 1040 ------- 1 1.0 3.0 12 38
r 0.401875 3 0 ack 40 ------- 1 3.0 1.0 10 59
+ 0.401875 0 1 ack 40 ------- 1 3.0 1.0 10 59
- 0.401875 0 1 ack 40 ------- 1 3.0 1.0 10 59
+ 0.403438 2 0 cbr 210 ------- 2 2.0 4.0 31 63
- 0.403438 2 0 cbr 210 ------- 2 2.0 4.0 31 63
r 0.403594 2 0 cbr 210 ------- 2 2.0 4.0 29 58
+ 0.403594 0 4 cbr 210 ------- 2 2.0 4.0 29 58
- 0.403594 0 4 cbr 210 ------- 2 2.0 4.0 29 58
- 0.40375 1 0 tcp 1040 ------- 1 1.0 3.0 14 43
r 0.40375 0 4 cbr 210 ------- 2 2.0 4.0 27 54
r 0.4075 0 3 tcp 1040 ------- 1 1.0 3.0 11 37
+ 0.4075 3 0 ack 40 ------- 1 3.0 1.0 11 64
- 0.4075 3 0 ack 40 ------- 1 3.0 1.0 11 64
+ 0.41 2 0 cbr 210 ------- 2 2.0 4.0 32 65
- 0.41 2 0 cbr 210 ------- 2 2.0 4.0 32 65
r 0.410156 2 0 cbr 210 ------- 2 2.0 4.0 30 62
+ 0.410156 0 4 cbr 210 ------- 2 2.0 4.0 30 62
- 0.410156 0 4 cbr 210 ------- 2 2.0 4.0 30 62
r 0.410313 0 4 cbr 210 ------- 2 2.0 4.0 28 57
r 0.4125 0 1 ack 40 ------- 1 3.0 1.0 10 59
+ 0.4125 1 0 tcp 1040 ------- 1 1.0 3.0 21 66
+ 0.4125 1 0 tcp 1040 ------- 1 1.0 3.0 22 67
r 0.41375 1 0 tcp 1040 ------- 1 1.0 3.0 13 42
+ 0.41375 0 3 tcp 1040 ------- 1 1.0 3.0 13 42
- 0.41375 0 3 tcp 1040 ------- 1 1.0 3.0 13 42
+ 0.416563 2 0 cbr 210 ------- 2 2.0 4.0 33 68
- 0.416563 2 0 cbr 210 ------- 2 2.0 4.0 33 68
r 0.416719 2 0 cbr 210 ------- 2 2.0 4.0 31 63
+ 0.416719 0 4 cbr 210 ------- 2 2.0 4.0 31 63
- 0.416719 0 4 cbr 210 ------- 2 2.0 4.0 31 63
r 0.416875 0 4 cbr 210 ------- 2 2.0 4.0 29 58
r 0.418125 3 0 ack 40 ------- 1 3.0 1.0 11 64
+ 0.418125 0 1 ack 40 ------- 1 3.0 1.0 11 64
- 0.418125 0 1 ack 40 ------- 1 3.0 1.0 11 64
- 0.42 1 0 tcp 1040 ------- 1 1.0 3.0 15 49
+ 0.423125 2 0 cbr 210 ------- 2 2.0 4.0 34 69
- 0.423125 2 0 cbr 210 ------- 2 2.0 4.0 34 69
r 0.423281 2 0 cbr 210 ------- 2 2.0 4.0 32 65
+ 0.423281 0 4 cbr 210 ------- 2 2.0 4.0 32 65
- 0.423281 0 4 cbr 210 ------- 2 2.0 4.0 32 65
r 0.423438 0 4 cbr 210 ------- 2 2.0 4.0 30 62
r 0.42375 0 3 tcp 1040 ------- 1 1.0 3.0 12 38
+ 0.42375 3 0 ack 40 ------- 1 3.0 1.0 12 70
- 0.42375 3 0 ack 40 ------- 1 3.0 1.0 12 70
r 0.42875 0 1 ack 40 ------- 1 3.0 1.0 11 64
+ 0.42875 1 0 tcp 1040 ------- 1 1.0 3.0 23 71
+ 0.42875 1 0 tcp 1040 ------- 1 1.0 3.0 24 72
+ 0.429688 2 0 cbr 210 ------- 2 2.0 4.0 35 73
- 0.429688 2 0 cbr 210 ------- 2 2.0 4.0 35 73
r 0.429844 2 0 cbr 210 ------- 2 2.0 4.0 33 68
+ 0.429844 0 4 cbr 210 ------- 2 2.0 4.0 33 68
- 0.429844 0 4 cbr 210 ------- 2 2.0 4.0 33 68
r 0.43 1 0 tcp 1040 ------- 1 1.0 3.0 14 43
+ 0.43 0 3 tcp 1040 ------- 1 1.0 3.0 14 43
- 0.43 0 3 tcp 1040 ------- 1 1.0 3.0 14 43
r 0.43 0 4 cbr 210 ------- 2 2.0 4.0 31 63
r 0.434375 3 0 ack 40 ------- 1 3.0 1.0 12 70
+ 0.434375 0 1 ack 40 ------- 1 3.0 1.0 12 70
- 0.434375 0 1 ack 40 ------- 1 3.0 1.0 12 70
- 0.43625 1 0 tcp 1040 ------- 1 1.0 3.0 16 50
+ 0.43625 2 0 cbr 210 ------- 2 2.0 4.0 36 74
- 0.43625 2 0 cbr 210 ------- 2 2.0 4.0 36 74
r 0.436406 2 0 cbr 210 ------- 2 2.0 4.0 34 69
+ 0.436406 0 4 cbr 210 ------- 2 2.0 4.0 34 69
- 0.436406 0 4 cbr 210 ------- 2 2.0 4.0 34 69
r 0.436563 0 4 cbr 210 ------- 2 2.0 4.0 32 65
r 0.44 0 3 tcp 1040 ------- 1 1.0 3.0 13 42
+ 0.44 3 0 ack 40 ------- 1 3.0 1.0 13 75
- 0.44 3 0 ack 40 ------- 1 3.0 1.0 13 75
+ 0.442813 2 0 cbr 210 ------- 2 2.0 4.0 37 76
- 0.442813 2 0 cbr 210 ------- 2 2.0 4.0 37 76
r 0.442969 2 0 cbr 210 ------- 2 2.0 4.0 35 73
+ 0.442969 0 4 cbr 210 ------- 2 2.0 4.0 35 73
- 0.442969 0 4 cbr 210 ------- 2 2.0 4.0 35 73
r 0.443125 0 4 cbr 210 ------- 2 2.0 4.0 33 68
r 0.445 0 1 ack 40 ------- 1 3.0 1.0 12 70
+ 0.445 1 0 tcp 1040 ------- 1 1.0 3.0 25 77
+ 0.445 1 0 tcp 1040 ------- 1 1.0 3.0 26 78
r 0.44625 1 0 tcp 1040 ------- 1 1.0 3.0 15 49
+ 0.44625 0 3 tcp 1040 ------- 1 1.0 3.0 15 49
- 0.44625 0 3 tcp 1040 ------- 1 1.0 3.0 15 49
+ 0.449375 2 0 cbr 210 ------- 2 2.0 4.0 38 79
- 0.449375 2 0 cbr 210 ------- 2 2.0 4.0 38 79
r 0.449531 2 0 cbr 210 ------- 2 2.0 4.0 36 74
+ 0.449531 0 4 cbr 210 ------- 2 2.0 4.0 36 74
- 0.449531 0 4 cbr 210 ------- 2 2.0 4.0 36 74
r 0.449688 0 4 cbr 210 ------- 2 2.0 4.0 34 69
r 0.450625 3 0 ack 40 ------- 1 3.0 1.0 13 75
+ 0.450625 0 1 ack 40 ------- 1 3.0 1.0 13 75
- 0.450625 0 1 ack 40 ------- 1 3.0 1.0 13 75
- 0.4525 1 0 tcp 1040 ------- 1 1.0 3.0 17 55
+ 0.455938 2 0 cbr 210 ------- 2 2.0 4.0 39 80
- 0.455938 2 0 cbr 210 ------- 2 2.0 4.0 39 80
r 0.456094 2 0 cbr 210 ------- 2 2.0 4.0 37 76
+ 0.456094 0 4 cbr 210 ------- 2 2.0 4.0 37 76
- 0.456094 0 4 cbr 210 ------- 2 2.0 4.0 37 76
r 0.45625 0 3 tcp 1040 ------- 1 1.0 3.0 14 43
+ 0.45625 3 0 ack 40 ------- 1 3.0 1.0 14 81
- 0.45625 3 0 ack 40 ------- 1 3.0 1.0 14 81
r 0.45625 0 4 cbr 210 ------- 2 2.0 4.0 35 73
r 0.46125 0 1 ack 40 ------- 1 3.0 1.0 13 75
+ 0.46125 1 0 tcp 1040 ------- 1 1.0 3.0 27 82
+ 0.46125 1 0 tcp 1040 ------- 1 1.0 3.0 28 83
r 0.4625 1 0 tcp 1040 ------- 1 1.0 3.0 16 50
+ 0.4625 0 3 tcp 1040 ------- 1 1.0 3.0 16 50
- 0.4625 0 3 tcp 1040 ------- 1 1.0 3.0 16 50
+ 0.4625 2 0 cbr 210 ------- 2 2.0 4.0 40 84
- 0.4625 2 0 cbr 210 ------- 2 2.0 4.0 40 84
r 0.462656 2 0 cbr 210 ------- 2 2.0 4.0 38 79
+ 0.462656 0 4 cbr 210 ------- 2 2.0 4.0 38 79
- 0.462656 0 4 cbr 210 ------- 2 2.0 4.0 38 79
r 0.462813 0 4 cbr 210 ------- 2 2.0 4.0 36 74
r 0.466875 3 0 ack 40 ------- 1 3.0 1.0 14 81
+ 0.466875 0 1 ack 40 ------- 1 3.0 1.0 14 81
- 0.466875 0 1 ack 40 ------- 1 3.0 1.0 14 81
- 0.46875 1 0 tcp 1040 ------- 1 1.0 3.0 18 56
+ 0.469063 2 0 cbr 210 ------- 2 2.0 4.0 41 85
- 0.469063 2 0 cbr 210 ------- 2 2.0 4.0 41 85
r 0.469219 2 0 cbr 210 ------- 2 2.0 4.0 39 80
+ 0.469219 0 4 cbr 210 ------- 2 2.0 4.0 39 80
- 0.469219 0 4 cbr 210 ------- 2 2.0 4.0 39 80
r 0.469375 0 4 cbr 210 ------- 2 2.0 4.0 37 76
r 0.4725 0 3 tcp 1040 ------- 1 1.0 3.0 15 49
+ 0.4725 3 0 ack 40 ------- 1 3.0 1.0 15 86
- 0.4725 3 0 ack 40 ------- 1 3.0 1.0 15 86
+ 0.475625 2 0 cbr 210 ------- 2 2.0 4.0 42 87
- 0.475625 2 0 cbr 210 ------- 2 2.0 4.0 42 87
r 0.475781 2 0 cbr 210 ------- 2 2.0 4.0 40 84
+ 0.475781 0 4 cbr 210 ------- 2 2.0 4.0 40 84
- 0.475781 0 4 cbr 210 ------- 2 2.0 4.0 40 84
r 0.475938 0 4 cbr 210 ------- 2 2.0 4.0 38 79
r 0.4775 0 1 ack 40 ------- 1 3.0 1.0 14 81
+ 0.4775 1 0 tcp 1040 ------- 1 1.0 3.0 29 88
+ 0.4775 1 0 tcp 1040 ------- 1 1.0 3.0 30 89
r 0.47875 1 0 tcp 1040 ------- 1 1.0 3.0 17 55
+ 0.47875 0 3 tcp 1040 ------- 1 1.0 3.0 17 55
- 0.47875 0 3 tcp 1040 ------- 1 1.0 3.0 17 55
+ 0.482188 2 0 cbr 210 ------- 2 2.0 4.0 43 90
- 0.482188 2 0 cbr 210 ------- 2 2.0 4.0 43 90
r 0.482344 2 0 cbr 210 ------- 2 2.0 4.0 41 85
+ 0.482344 0 4 cbr 210 ------- 2 2.0 4.0 41 85
- 0.482344 0 4 cbr 210 ------- 2 2.0 4.0 41 85
r 0.4825 0 4 cbr 210 ------- 2 2.0 4.0 39 80
r 0.483125 3 0 ack 40 ------- 1 3.0 1.0 15 86
+ 0.483125 0 1 ack 40 ------- 1 3.0 1.0 15 86
- 0.483125 0 1 ack 40 ------- 1 3.0 1.0 15 86
- 0.485 1 0 tcp 1040 ------- 1 1.0 3.0 19 60
r 0.48875 0 3 tcp 1040 ------- 1 1.0 3.0 16 50
+ 0.48875 3 0 ack 40 ------- 1 3.0 1.0 16 91
- 0.48875 3 0 ack 40 ------- 1 3.0 1.0 16 91
+ 0.48875 2 0 cbr 210 ------- 2 2.0 4.0 44 92
- 0.48875 2 0 cbr 210 ------- 2 2.0 4.0 44 92
r 0.488906 2 0 cbr 210 ------- 2 2.0 4.0 42 87
+ 0.488906 0 4 cbr 210 ------- 2 2.0 4.0 42 87
- 0.488906 0 4 cbr 210 ------- 2 2.0 4.0 42 87
r 0.489063 0 4 cbr 210 ------- 2 2.0 4.0 40 84
r 0.49375 0 1 ack 40 ------- 1 3.0 1.0 15 86
+ 0.49375 1 0 tcp 1040 ------- 1 1.0 3.0 31 93
+ 0.49375 1 0 tcp 1040 ------- 1 1.0 3.0 32 94
r 0.495 1 0 tcp 1040 ------- 1 1.0 3.0 18 56
+ 0.495 0 3 tcp 1040 ------- 1 1.0 3.0 18 56
- 0.495 0 3 tcp 1040 ------- 1 1.0 3.0 18 56
+ 0.495313 2 0 cbr 210 ------- 2 2.0 4.0 45 95
- 0.495313 2 0 cbr 210 ------- 2 2.0 4.0 45 95
r 0.495469 2 0 cbr 210 ------- 2 2.0 4.0 43 90
+ 0.495469 0 4 cbr 210 ------- 2 2.0 4.0 43 90
- 0.495469 0 4 cbr 210 ------- 2 2.0 4.0 43 90
r 0.495625 0 4 cbr 210 ------- 2 2.0 4.0 41 85
r 0.499375 3 0 ack 40 ------- 1 3.0 1.0 16 91
+ 0.499375 0 1 ack 40 ------- 1 3.0 1.0 16 91
- 0.499375 0 1 ack 40 ------- 1 3.0 1.0 16 91
v 0.5 link-down 5 0
v 0.5 link-down 5 0
v 0.5 link-down 0 5
v 0.5 link-down 0 5
- 0.50125 1 0 tcp 1040 ------- 1 1.0 3.0 20 61
+ 0.501875 2 0 cbr 210 ------- 2 2.0 4.0 46 96
- 0.501875 2 0 cbr 210 ------- 2 2.0 4.0 46 96
r 0.502031 2 0 cbr 210 ------- 2 2.0 4.0 44 92
+ 0.502031 0 4 cbr 210 ------- 2 2.0 4.0 44 92
- 0.502031 0 4 cbr 210 ------- 2 2.0 4.0 44 92
r 0.502188 0 4 cbr 210 ------- 2 2.0 4.0 42 87
r 0.505 0 3 tcp 1040 ------- 1 1.0 3.0 17 55
+ 0.505 3 0 ack 40 ------- 1 3.0 1.0 17 97
- 0.505 3 0 ack 40 ------- 1 3.0 1.0 17 97
+ 0.508438 2 0 cbr 210 ------- 2 2.0 4.0 47 98
- 0.508438 2 0 cbr 210 ------- 2 2.0 4.0 47 98
r 0.508594 2 0 cbr 210 ------- 2 2.0 4.0 45 95
+ 0.508594 0 4 cbr 210 ------- 2 2.0 4.0 45 95
- 0.508594 0 4 cbr 210 ------- 2 2.0 4.0 45 95
r 0.50875 0 4 cbr 210 ------- 2 2.0 4.0 43 90
r 0.51 0 1 ack 40 ------- 1 3.0 1.0 16 91
+ 0.51 1 0 tcp 1040 ------- 1 1.0 3.0 33 99
+ 0.51 1 0 tcp 1040 ------- 1 1.0 3.0 34 100
d 0.51 1 0 tcp 1040 ------- 1 1.0 3.0 34 100
r 0.51125 1 0 tcp 1040 ------- 1 1.0 3.0 19 60
+ 0.51125 0 3 tcp 1040 ------- 1 1.0 3.0 19 60
- 0.51125 0 3 tcp 1040 ------- 1 1.0 3.0 19 60
+ 0.515 2 0 cbr 210 ------- 2 2.0 4.0 48 101
- 0.515 2 0 cbr 210 ------- 2 2.0 4.0 48 101
r 0.515156 2 0 cbr 210 ------- 2 2.0 4.0 46 96
+ 0.515156 0 4 cbr 210 ------- 2 2.0 4.0 46 96
- 0.515156 0 4 cbr 210 ------- 2 2.0 4.0 46 96
r 0.515313 0 4 cbr 210 ------- 2 2.0 4.0 44 92
r 0.515625 3 0 ack 40 ------- 1 3.0 1.0 17 97
+ 0.515625 0 1 ack 40 ------- 1 3.0 1.0 17 97
- 0.515625 0 1 ack 40 ------- 1 3.0 1.0 17 97
- 0.5175 1 0 tcp 1040 ------- 1 1.0 3.0 21 66
r 0.52125 0 3 tcp 1040 ------- 1 1.0 3.0 18 56
+ 0.52125 3 0 ack 40 ------- 1 3.0 1.0 18 102
- 0.52125 3 0 ack 40 ------- 1 3.0 1.0 18 102
+ 0.521563 2 0 cbr 210 ------- 2 2.0 4.0 49 103
- 0.521563 2 0 cbr 210 ------- 2 2.0 4.0 49 103
r 0.521719 2 0 cbr 210 ------- 2 2.0 4.0 47 98
+ 0.521719 0 4 cbr 210 ------- 2 2.0 4.0 47 98
- 0.521719 0 4 cbr 210 ------- 2 2.0 4.0 47 98
r 0.521875 0 4 cbr 210 ------- 2 2.0 4.0 45 95
r 0.52625 0 1 ack 40 ------- 1 3.0 1.0 17 97
+ 0.52625 1 0 tcp 1040 ------- 1 1.0 3.0 35 104
+ 0.52625 1 0 tcp 1040 ------- 1 1.0 3.0 36 105
d 0.52625 1 0 tcp 1040 ------- 1 1.0 3.0 36 105
r 0.5275 1 0 tcp 1040 ------- 1 1.0 3.0 20 61
+ 0.5275 0 3 tcp 1040 ------- 1 1.0 3.0 20 61
- 0.5275 0 3 tcp 1040 ------- 1 1.0 3.0 20 61
+ 0.528125 2 0 cbr 210 ------- 2 2.0 4.0 50 106
- 0.528125 2 0 cbr 210 ------- 2 2.0 4.0 50 106
r 0.528281 2 0 cbr 210 ------- 2 2.0 4.0 48 101
+ 0.528281 0 4 cbr 210 ------- 2 2.0 4.0 48 101
- 0.528281 0 4 cbr 210 ------- 2 2.0 4.0 48 101
r 0.528438 0 4 cbr 210 ------- 2 2.0 4.0 46 96
r 0.531875 3 0 ack 40 ------- 1 3.0 1.0 18 102
+ 0.531875 0 1 ack 40 ------- 1 3.0 1.0 18 102
- 0.531875 0 1 ack 40 ------- 1 3.0 1.0 18 102
- 0.53375 1 0 tcp 1040 ------- 1 1.0 3.0 22 67
+ 0.534688 2 0 cbr 210 ------- 2 2.0 4.0 51 107
- 0.534688 2 0 cbr 210 ------- 2 2.0 4.0 51 107
r 0.534844 2 0 cbr 210 ------- 2 2.0 4.0 49 103
+ 0.534844 0 4 cbr 210 ------- 2 2.0 4.0 49 103
- 0.534844 0 4 cbr 210 ------- 2 2.0 4.0 49 103
r 0.535 0 4 cbr 210 ------- 2 2.0 4.0 47 98
r 0.5375 0 3 tcp 1040 ------- 1 1.0 3.0 19 60
+ 0.5375 3 0 ack 40 ------- 1 3.0 1.0 19 108
- 0.5375 3 0 ack 40 ------- 1 3.0 1.0 19 108
+ 0.54125 2 0 cbr 210 ------- 2 2.0 4.0 52 109
- 0.54125 2 0 cbr 210 ------- 2 2.0 4.0 52 109
r 0.541406 2 0 cbr 210 ------- 2 2.0 4.0 50 106
+ 0.541406 0 4 cbr 210 ------- 2 2.0 4.0 50 106
- 0.541406 0 4 cbr 210 ------- 2 2.0 4.0 50 106
r 0.541563 0 4 cbr 210 ------- 2 2.0 4.0 48 101
r 0.5425 0 1 ack 40 ------- 1 3.0 1.0 18 102
+ 0.5425 1 0 tcp 1040 ------- 1 1.0 3.0 37 110
+ 0.5425 1 0 tcp 1040 ------- 1 1.0 3.0 38 111
d 0.5425 1 0 tcp 1040 ------- 1 1.0 3.0 38 111
r 0.54375 1 0 tcp 1040 ------- 1 1.0 3.0 21 66
+ 0.54375 0 3 tcp 1040 ------- 1 1.0 3.0 21 66
- 0.54375 0 3 tcp 1040 ------- 1 1.0 3.0 21 66
+ 0.547813 2 0 cbr 210 ------- 2 2.0 4.0 53 112
- 0.547813 2 0 cbr 210 ------- 2 2.0 4.0 53 112
r 0.547969 2 0 cbr 210 ------- 2 2.0 4.0 51 107
+ 0.547969 0 4 cbr 210 ------- 2 2.0 4.0 51 107
- 0.547969 0 4 cbr 210 ------- 2 2.0 4.0 51 107
r 0.548125 3 0 ack 40 ------- 1 3.0 1.0 19 108
+ 0.548125 0 1 ack 40 ------- 1 3.0 1.0 19 108
- 0.548125 0 1 ack 40 ------- 1 3.0 1.0 19 108
r 0.548125 0 4 cbr 210 ------- 2 2.0 4.0 49 103
- 0.55 1 0 tcp 1040 ------- 1 1.0 3.0 23 71
r 0.55375 0 3 tcp 1040 ------- 1 1.0 3.0 20 61
+ 0.55375 3 0 ack 40 ------- 1 3.0 1.0 20 113
- 0.55375 3 0 ack 40 ------- 1 3.0 1.0 20 113
+ 0.554375 2 0 cbr 210 ------- 2 2.0 4.0 54 114
- 0.554375 2 0 cbr 210 ------- 2 2.0 4.0 54 114
r 0.554531 2 0 cbr 210 ------- 2 2.0 4.0 52 109
+ 0.554531 0 4 cbr 210 ------- 2 2.0 4.0 52 109
- 0.554531 0 4 cbr 210 ------- 2 2.0 4.0 52 109
r 0.554688 0 4 cbr 210 ------- 2 2.0 4.0 50 106
r 0.55875 0 1 ack 40 ------- 1 3.0 1.0 19 108
+ 0.55875 1 0 tcp 1040 ------- 1 1.0 3.0 39 115
r 0.56 1 0 tcp 1040 ------- 1 1.0 3.0 22 67
+ 0.56 0 3 tcp 1040 ------- 1 1.0 3.0 22 67
- 0.56 0 3 tcp 1040 ------- 1 1.0 3.0 22 67
+ 0.560938 2 0 cbr 210 ------- 2 2.0 4.0 55 116
- 0.560938 2 0 cbr 210 ------- 2 2.0 4.0 55 116
r 0.561094 2 0 cbr 210 ------- 2 2.0 4.0 53 112
+ 0.561094 0 4 cbr 210 ------- 2 2.0 4.0 53 112
- 0.561094 0 4 cbr 210 ------- 2 2.0 4.0 53 112
r 0.56125 0 4 cbr 210 ------- 2 2.0 4.0 51 107
r 0.564375 3 0 ack 40 ------- 1 3.0 1.0 20 113
+ 0.564375 0 1 ack 40 ------- 1 3.0 1.0 20 113
- 0.564375 0 1 ack 40 ------- 1 3.0 1.0 20 113
- 0.56625 1 0 tcp 1040 ------- 1 1.0 3.0 24 72
+ 0.5675 2 0 cbr 210 ------- 2 2.0 4.0 56 117
- 0.5675 2 0 cbr 210 ------- 2 2.0 4.0 56 117
r 0.567656 2 0 cbr 210 ------- 2 2.0 4.0 54 114
+ 0.567656 0 4 cbr 210 ------- 2 2.0 4.0 54 114
- 0.567656 0 4 cbr 210 ------- 2 2.0 4.0 54 114
r 0.567813 0 4 cbr 210 ------- 2 2.0 4.0 52 109
r 0.57 0 3 tcp 1040 ------- 1 1.0 3.0 21 66
+ 0.57 3 0 ack 40 ------- 1 3.0 1.0 21 118
- 0.57 3 0 ack 40 ------- 1 3.0 1.0 21 118
+ 0.574063 2 0 cbr 210 ------- 2 2.0 4.0 57 119
- 0.574063 2 0 cbr 210 ------- 2 2.0 4.0 57 119
r 0.574219 2 0 cbr 210 ------- 2 2.0 4.0 55 116
+ 0.574219 0 4 cbr 210 ------- 2 2.0 4.0 55 116
- 0.574219 0 4 cbr 210 ------- 2 2.0 4.0 55 116
r 0.574375 0 4 cbr 210 ------- 2 2.0 4.0 53 112
r 0.575 0 1 ack 40 ------- 1 3.0 1.0 20 113
+ 0.575 1 0 tcp 1040 ------- 1 1.0 3.0 40 120
r 0.57625 1 0 tcp 1040 ------- 1 1.0 3.0 23 71
+ 0.57625 0 3 tcp 1040 ------- 1 1.0 3.0 23 71
- 0.57625 0 3 tcp 1040 ------- 1 1.0 3.0 23 71
r 0.580625 3 0 ack 40 ------- 1 3.0 1.0 21 118
+ 0.580625 0 1 ack 40 ------- 1 3.0 1.0 21 118
- 0.580625 0 1 ack 40 ------- 1 3.0 1.0 21 118
+ 0.580625 2 0 cbr 210 ------- 2 2.0 4.0 58 121
- 0.580625 2 0 cbr 210 ------- 2 2.0 4.0 58 121
r 0.580781 2 0 cbr 210 ------- 2 2.0 4.0 56 117
+ 0.580781 0 4 cbr 210 ------- 2 2.0 4.0 56 117
- 0.580781 0 4 cbr 210 ------- 2 2.0 4.0 56 117
r 0.580938 0 4 cbr 210 ------- 2 2.0 4.0 54 114
- 0.5825 1 0 tcp 1040 ------- 1 1.0 3.0 25 77
r 0.58625 0 3 tcp 1040 ------- 1 1.0 3.0 22 67
+ 0.58625 3 0 ack 40 ------- 1 3.0 1.0 22 122
- 0.58625 3 0 ack 40 ------- 1 3.0 1.0 22 122
+ 0.587188 2 0 cbr 210 ------- 2 2.0 4.0 59 123
- 0.587188 2 0 cbr 210 ------- 2 2.0 4.0 59 123
r 0.587344 2 0 cbr 210 ------- 2 2.0 4.0 57 119
+ 0.587344 0 4 cbr 210 ------- 2 2.0 4.0 57 119
- 0.587344 0 4 cbr 210 ------- 2 2.0 4.0 57 119
r 0.5875 0 4 cbr 210 ------- 2 2.0 4.0 55 116
r 0.59125 0 1 ack 40 ------- 1 3.0 1.0 21 118
+ 0.59125 1 0 tcp 1040 ------- 1 1.0 3.0 41 124