V -t * -v 1.0a5 -a 0
A -t * -n 1 -p 0 -o 0x7fffffff -c 30 -a 1
A -t * -h 1 -m 1073741823 -s 0
c -t * -i 1 -n blue
c -t * -i 2 -n red
c -t * -i 3 -n yellow
n -t * -a 4 -s 4 -S UP -v circle -c black -i black
n -t * -a 0 -s 0 -S UP -v circle -c black -i black
n -t * -a 5 -s 5 -S UP -v circle -c black -i black
n -t * -a 1 -s 1 -S UP -v circle -c black -i black
n -t * -a 6 -s 6 -S UP -v circle -c black -i black
n -t * -a 2 -s 2 -S UP -v circle -c black -i black
n -t * -a 3 -s 3 -S UP -v circle -c black -i black
l -t * -s 0 -d 1 -S UP -r 512000 -D 0.01 -c black -o left-up
l -t * -s 0 -d 2 -S UP -r 512000 -D 0.01 -c black -o right-up
l -t * -s 0 -d 3 -S UP -r 512000 -D 0.01 -c black -o right
l -t * -s 0 -d 4 -S UP -r 512000 -D 0.01 -c black -o right-down
l -t * -s 0 -d 5 -S UP -r 512000 -D 0.01 -c black -o left-down
l -t * -s 0 -d 6 -S UP -r 512000 -D 0.01 -c black -o left
+ -t 0.1 -s 1 -d 0 -p tcp -e 40 -c 1 -i 0 -a 1 -x {1.0 3.0 0 ------- null}
- -t 0.1 -s 1 -d 0 -p tcp -e 40 -c 1 -i 0 -a 1 -x {1.0 3.0 0 ------- null}
h -t 0.1 -s 1 -d 0 -p tcp -e 40 -c 1 -i 0 -a 1 -x {1.0 3.0 -1 ------- null}
r -t 0.110625 -s 1 -d 0 -p tcp -e 40 -c 1 -i 0 -a 1 -x {1.0 3.0 0 ------- null}
+ -t 0.110625 -s 0 -d 3 -p tcp -e 40 -c 1 -i 0 -a 1 -x {1.0 3.0 0 ------- null}
- -t 0.110625 -s 0 -d 3 -p tcp -e 40 -c 1 -i 0 -a 1 -x {1.0 3.0 0 ------- null}
h -t 0.110625 -s 0 -d 3 -p tcp -e 40 -c 1 -i 0 -a 1 -x {1.0 3.0 -1 ------- null}
r -t 0.12125 -s 0 -d 3 -p tcp -e 40 -c 1 -i 0 -a 1 -x {1.0 3.0 0 ------- null}
+ -t 0.12125 -s 3 -d 0 -p ack -e 40 -c 1 -i 1 -a 1 -x {3.0 1.0 0 ------- null}
- -t 0.12125 -s 3 -d 0 -p ack -e 40 -c 1 -i 1 -a 1 -x {3.0 1.0 0 ------- null}
h -t 0.12125 -s 3 -d 0 -p ack -e 40 -c 1 -i 1 -a 1 -x {3.0 1.0 -1 ------- null}
r -t 0.131875 -s 3 -d 0 -p ack -e 40 -c 1 -i 1 -a 1 -x {3.0 1.0 0 ------- null}
+ -t 0.131875 -s 0 -d 1 -p ack -e 40 -c 1 -i 1 -a 1 -x {3.0 1.0 0 ------- null}
- -t 0.131875 -s 0 -d 1 -p ack -e 40 -c 1 -i 1 -a 1 -x {3.0 1.0 0 ------- null}
h -t 0.131875 -s 0 -d 1 -p ack -e 40 -c 1 -i 1 -a 1 -x {3.0 1.0 -1 ------- null}
r -t 0.1425 -s 0 -d 1 -p ack -e 40 -c 1 -i 1 -a 1 -x {3.0 1.0 0 ------- null}
+ -t 0.1425 -s 1 -d 0 -p tcp -e 1040 -c 1 -i 2 -a 1 -x {1.0 3.0 1 ------- null}
- -t 0.1425 -s 1 -d 0 -p tcp -e 1040 -c 1 -i 2 -a 1 -x {1.0 3.0 1 ------- null}
h -t 0.1425 -s 1 -d 0 -p tcp -e 1040 -c 1 -i 2 -a 1 -x {1.0 3.0 -1 ------- null}
+ -t 0.1425 -s 1 -d 0 -p tcp -e 1040 -c 1 -i 3 -a 1 -x {1.0 3.0 2 ------- null}
- -t 0.15875 -s 1 -d 0 -p tcp -e 1040 -c 1 -i 3 -a 1 -x {1.0 3.0 2 ------- null}
h -t 0.15875 -s 1 -d 0 -p tcp -e 1040 -c 1 -i 3 -a 1 -x {1.0 3.0 -1 ------- null}
r -t 0.16875 -s 1 -d 0 -p tcp -e 1040 -c 1 -i 2 -a 1 -x {1.0 3.0 1 ------- null}
+ -t 0.16875 -s 0 -d 3 -p tcp -e 1040 -c 1 -i 2 -a 1 -x {1.0 3.0 1 ------- null}
- -t 0.16875 -s 0 -d 3 -p tcp -e 1040 -c 1 -i 2 -a 1 -x {1.0 3.0 1 ------- null}
h -t 0.16875 -s 0 -d 3 -p tcp -e 1040 -c 1 -i 2 -a 1 -x {1.0 3.0 -1 ------- null}
r -t 0.185 -s 1 -d 0 -p tcp -e 1040 -c 1 -i 3 -a 1 -x {1.0 3.0 2 ------- null}
+ -t 0.185 -s 0 -d 3 -p tcp -e 1040 -c 1 -i 3 -a 1 -x {1.0 3.0 2 ------- null}
- -t 0.185 -s 0 -d 3 -p tcp -e 1040 -c 1 -i 3 -a 1 -x {1.0 3.0 2 ------- null}
h -t 0.185 -s 0 -d 3 -p tcp -e 1040 -c 1 -i 3 -a 1 -x {1.0 3.0 -1 ------- null}
r -t 0.195 -s 0 -d 3 -p tcp -e 1040 -c 1 -i 2 -a 1 -x {1.0 3.0 1 ------- null}
+ -t 0.195 -s 3 -d 0 -p ack -e 40 -c 1 -i 4 -a 1 -x {3.0 1.0 1 ------- null}
- -t 0.195 -s 3 -d 0 -p ack -e 40 -c 1 -i 4 -a 1 -x {3.0 1.0 1 ------- null}
h -t 0.195 -s 3 -d 0 -p ack -e 40 -c 1 -i 4 -a 1 -x {3.0 1.0 -1 ------- null}
+ -t 0.2 -s 2 -d 0 -p cbr -e 210 -c 2 -i 5 -a 2 -x {2.0 4.0 0 ------- null}
- -t 0.2 -s 2 -d 0 -p cbr -e 210 -c 2 -i 5 -a 2 -x {2.0 4.0 0 ------- null}
h -t 0.2 -s 2 -d 0 -p cbr -e 210 -c 2 -i 5 -a 2 -x {2.0 4.0 -1 ------- null}
r -t 0.205625 -s 3 -d 0 -p ack -e 40 -c 1 -i 4 -a 1 -x {3.0 1.0 1 ------- null}
+ -t 0.205625 -s 0 -d 1 -p ack -e 40 -c 1 -i 4 -a 1 -x {3.0 1.0 1 ------- null}
- -t 0.205625 -s 0 -d 1 -p ack -e 40 -c 1 -i 4 -a 1 -x {3.0 1.0 1 ------- null}
h -t 0.205625 -s 0 -d 1 -p ack -e 40 -c 1 -i 4 -a 1 -x {3.0 1.0 -1 ------- null}
+ -t 0.2065625 -s 2 -d 0 -p cbr -e 210 -c 2 -i 6 -a 2 -x {2.0 4.0 1 ------- null}
- -t 0.2065625 -s 2 -d 0 -p cbr -e 210 -c 2 -i 6 -a 2 -x {2.0 4.0 1 ------- null}
h -t 0.2065625 -s 2 -d 0 -p cbr -e 210 -c 2 -i 6 -a 2 -x {2.0 4.0 -1 ------- null}
r -t 0.21125 -s 0 -d 3 -p tcp -e 1040 -c 1 -i 3 -a 1 -x {1.0 3.0 2 ------- null}
+ -t 0.21125 -s 3 -d 0 -p ack -e 40 -c 1 -i 7 -a 1 -x {3.0 1.0 2 ------- null}
- -t 0.21125 -s 3 -d 0 -p ack -e 40 -c 1 -i 7 -a 1 -x {3.0 1.0 2 ------- null}
h -t 0.21125 -s 3 -d 0 -p ack -e 40 -c 1 -i 7 -a 1 -x {3.0 1.0 -1 ------- null}
+ -t 0.213125 -s 2 -d 0 -p cbr -e 210 -c 2 -i 8 -a 2 -x {2.0 4.0 2 ------- null}
- -t 0.213125 -s 2 -d 0 -p cbr -e 210 -c 2 -i 8 -a 2 -x {2.0 4.0 2 ------- null}
h -t 0.213125 -s 2 -d 0 -p cbr -e 210 -c 2 -i 8 -a 2 -x {2.0 4.0 -1 ------- null}
r -t 0.21328125 -s 2 -d 0 -p cbr -e 210 -c 2 -i 5 -a 2 -x {2.0 4.0 0 ------- null}
+ -t 0.21328125 -s 0 -d 4 -p cbr -e 210 -c 2 -i 5 -a 2 -x {2.0 4.0 0 ------- null}
- -t 0.21328125 -s 0 -d 4 -p cbr -e 210 -c 2 -i 5 -a 2 -x {2.0 4.0 0 ------- null}
h -t 0.21328125 -s 0 -d 4 -p cbr -e 210 -c 2 -i 5 -a 2 -x {2.0 4.0 -1 ------- null}
r -t 0.21625 -s 0 -d 1 -p ack -e 40 -c 1 -i 4 -a 1 -x {3.0 1.0 1 ------- null}
+ -t 0.21625 -s 1 -d 0 -p tcp -e 1040 -c 1 -i 9 -a 1 -x {1.0 3.0 3 ------- null}
- -t 0.21625 -s 1 -d 0 -p tcp -e 1040 -c 1 -i 9 -a 1 -x {1.0 3.0 3 ------- null}
h -t 0.21625 -s 1 -d 0 -p tcp -e 1040 -c 1 -i 9 -a 1 -x {1.0 3.0 -1 ------- null}
+ -t 0.21625 -s 1 -d 0 -p tcp -e 1040 -c 1 -i 10 -a 1 -x {1.0 3.0 4 ------- null}
+ -t 0.2196875 -s 2 -d 0 -p cbr -e 210 -c 2 -i 11 -a 2 -x {2.0 4.0 3 ------- null}
- -t 0.2196875 -s 2 -d 0 -p cbr -e 210 -c 2 -i 11 -a 2 -x {2.0 4.0 3 ------- null}
h -t 0.2196875 -s 2 -d 0 -p cbr -e 210 -c 2 -i 11 -a 2 -x {2.0 4.0 -1 ------- null}
r -t 0.21984375 -s 2 -d 0 -p cbr -e 210 -c 2 -i 6 -a 2 -x {2.0 4.0 1 ------- null}
+ -t 0.21984375 -s 0 -d 4 -p cbr -e 210 -c 2 -i 6 -a 2 -x {2.0 4.0 1 ------- null}
- -t 0.21984375 -s 0 -d 4 -p cbr -e 210 -c 2 -i 6 -a 2 -x {2.0 4.0 1 ------- null}
h -t 0.21984375 -s 0 -d 4 -p cbr -e 210 -c 2 -i 6 -a 2 -x {2.0 4.0 -1 ------- null}
r -t 0.221875 -s 3 -d 0 -p ack -e 40 -c 1 -i 7 -a 1 -x {3.0 1.0 2 ------- null}
+ -t 0.221875 -s 0 -d 1 -p ack -e 40 -c 1 -i 7 -a 1 -x {3.0 1.0 2 ------- null}
- -t 0.221875 -s 0 -d 1 -p ack -e 40 -c 1 -i 7 -a 1 -x {3.0 1.0 2 ------- null}
h -t 0.221875 -s 0 -d 1 -p ack -e 40 -c 1 -i 7 -a 1 -x {3.0 1.0 -1 ------- null}
+ -t 0.22625 -s 2 -d 0 -p cbr -e 210 -c 2 -i 12 -a 2 -x {2.0 4.0 4 ------- null}
- -t 0.22625 -s 2 -d 0 -p cbr -e 210 -c 2 -i 12 -a 2 -x {2.0 4.0 4 ------- null}
h -t 0.22625 -s 2 -d 0 -p cbr -e 210 -c 2 -i 12 -a 2 -x {2.0 4.0 -1 ------- null}
r -t 0.22640625 -s 2 -d 0 -p cbr -e 210 -c 2 -i 8 -a 2 -x {2.0 4.0 2 ------- null}
+ -t 0.22640625 -s 0 -d 4 -p cbr -e 210 -c 2 -i 8 -a 2 -x {2.0 4.0 2 ------- null}
- -t 0.22640625 -s 0 -d 4 -p cbr -e 210 -c 2 -i 8 -a 2 -x {2.0 4.0 2 ------- null}
h -t 0.22640625 -s 0 -d 4 -p cbr -e 210 -c 2 -i 8 -a 2 -x {2.0 4.0 -1 ------- null}
r -t 0.2265625 -s 0 -d 4 -p cbr -e 210 -c 2 -i 5 -a 2 -x {2.0 4.0 0 ------- null}
- -t 0.2325 -s 1 -d 0 -p tcp -e 1040 -c 1 -i 10 -a 1 -x {1.0 3.0 4 ------- null}
h -t 0.2325 -s 1 -d 0 -p tcp -e 1040 -c 1 -i 10 -a 1 -x {1.0 3.0 -1 ------- null}
r -t 0.2325 -s 0 -d 1 -p ack -e 40 -c 1 -i 7 -a 1 -x {3.0 1.0 2 ------- null}
+ -t 0.2325 -s 1 -d 0 -p tcp -e 1040 -c 1 -i 13 -a 1 -x {1.0 3.0 5 ------- null}
+ -t 0.2325 -s 1 -d 0 -p tcp -e 1040 -c 1 -i 14 -a 1 -x {1.0 3.0 6 ------- null}
+ -t 0.2328125 -s 2 -d 0 -p cbr -e 210 -c 2 -i 15 -a 2 -x {2.0 4.0 5 ------- null}
- -t 0.2328125 -s 2 -d 0 -p cbr -e 210 -c 2 -i 15 -a 2 -x {2.0 4.0 5 ------- null}
h -t 0.2328125 -s 2 -d 0 -p cbr -e 210 -c 2 -i 15 -a 2 -x {2.0 4.0 -1 ------- null}
r -t 0.23296875 -s 2 -d 0 -p cbr -e 210 -c 2 -i 11 -a 2 -x {2.0 4.0 3 ------- null}
+ -t 0.23296875 -s 0 -d 4 -p cbr -e 210 -c 2 -i 11 -a 2 -x {2.0 4.0 3 ------- null}
- -t 0.23296875 -s 0 -d 4 -p cbr -e 210 -c 2 -i 11 -a 2 -x {2.0 4.0 3 ------- null}
h -t 0.23296875 -s 0 -d 4 -p cbr -e 210 -c 2 -i 11 -a 2 -x {2.0 4.0 -1 ------- null}
r -t 0.233125 -s 0 -d 4 -p cbr -e 210 -c 2 -i 6 -a 2 -x {2.0 4.0 1 ------- null}
+ -t 0.239375 -s 2 -d 0 -p cbr -e 210 -c 2 -i 16 -a 2 -x {2.0 4.0 6 ------- null}
- -t 0.239375 -s 2 -d 0 -p cbr -e 210 -c 2 -i 16 -a 2 -x {2.0 4.0 6 ------- null}
h -t 0.239375 -s 2 -d 0 -p cbr -e 210 -c 2 -i 16 -a 2 -x {2.0 4.0 -1 ------- null}
r -t 0.23953125 -s 2 -d 0 -p cbr -e 210 -c 2 -i 12 -a 2 -x {2.0 4.0 4 ------- null}
+ -t 0.23953125 -s 0 -d 4 -p cbr -e 210 -c 2 -i 12 -a 2 -x {2.0 4.0 4 ------- null}
- -t 0.23953125 -s 0 -d 4 -p cbr -e 210 -c 2 -i 12 -a 2 -x {2.0 4.0 4 ------- null}
h -t 0.23953125 -s 0 -d 4 -p cbr -e 210 -c 2 -i 12 -a 2 -x {2.0 4.0 -1 ------- null}
r -t 0.2396875 -s 0 -d 4 -p cbr -e 210 -c 2 -i 8 -a 2 -x {2.0 4.0 2 ------- null}
r -t 0.2425 -s 1 -d 0 -p tcp -e 1040 -c 1 -i 9 -a 1 -x {1.0 3.0 3 ------- null}
+ -t 0.2425 -s 0 -d 3 -p tcp -e 1040 -c 1 -i 9 -a 1 -x {1.0 3.0 3 ------- null}
- -t 0.2425 -s 0 -d 3 -p tcp -e 1040 -c 1 -i 9 -a 1 -x {1.0 3.0 3 ------- null}
h -t 0.2425 -s 0 -d 3 -p tcp -e 1040 -c 1 -i 9 -a 1 -x {1.0 3.0 -1 ------- null}
+ -t 0.2459375 -s 2 -d 0 -p cbr -e 210 -c 2 -i 17 -a 2 -x {2.0 4.0 7 ------- null}
- -t 0.2459375 -s 2 -d 0 -p cbr -e 210 -c 2 -i 17 -a 2 -x {2.0 4.0 7 ------- null}
h -t 0.2459375 -s 2 -d 0 -p cbr -e 210 -c 2 -i 17 -a 2 -x {2.0 4.0 -1 ------- null}
r -t 0.24609375 -s 2 -d 0 -p cbr -e 210 -c 2 -i 15 -a 2 -x {2.0 4.0 5 ------- null}
+ -t 0.24609375 -s 0 -d 4 -p cbr -e 210 -c 2 -i 15 -a 2 -x {2.0 4.0 5 ------- null}
- -t 0.24609375 -s 0 -d 4 -p cbr -e 210 -c 2 -i 15 -a 2 -x {2.0 4.0 5 ------- null}
h -t 0.24609375 -s 0 -d 4 -p cbr -e 210 -c 2 -i 15 -a 2 -x {2.0 4.0 -1 ------- null}
r -t 0.24625 -s 0 -d 4 -p cbr -e 210 -c 2 -i 11 -a 2 -x {2.0 4.0 3 ------- null}
- -t 0.24875 -s 1 -d 0 -p tcp -e 1040 -c 1 -i 13 -a 1 -x {1.0 3.0 5 ------- null}
h -t 0.24875 -s 1 -d 0 -p tcp -e 1040 -c 1 -i 13 -a 1 -x {1.0 3.0 -1 ------- null}
+ -t 0.2525 -s 2 -d 0 -p cbr -e 210 -c 2 -i 18 -a 2 -x {2.0 4.0 8 ------- null}
- -t 0.2525 -s 2 -d 0 -p cbr -e 210 -c 2 -i 18 -a 2 -x {2.0 4.0 8 ------- null}
h -t 0.2525 -s 2 -d 0 -p cbr -e 210 -c 2 -i 18 -a 2 -x {2.0 4.0 -1 ------- null}
r -t 0.25265625 -s 2 -d 0 -p cbr -e 210 -c 2 -i 16 -a 2 -x {2.0 4.0 6 ------- null}
+ -t 0.25265625 -s 0 -d 4 -p cbr -e 210 -c 2 -i 16 -a 2 -x {2.0 4.0 6 ------- null}
- -t 0.25265625 -s 0 -d 4 -p cbr -e 210 -c 2 -i 16 -a 2 -x {2.0 4.0 6 ------- null}
h -t 0.25265625 -s 0 -d 4 -p cbr -e 210 -c 2 -i 16 -a 2 -x {2.0 4.0 -1 ------- null}
r -t 0.2528125 -s 0 -d 4 -p cbr -e 210 -c 2 -i 12 -a 2 -x {2.0 4.0 4 ------- null}
r -t 0.25875 -s 1 -d 0 -p tcp -e 1040 -c 1 -i 10 -a 1 -x {1.0 3.0 4 ------- null}
+ -t 0.25875 -s 0 -d 3 -p tcp -e 1040 -c 1 -i 10 -a 1 -x {1.0 3.0 4 ------- null}
- -t 0.25875 -s 0 -d 3 -p tcp -e 1040 -c 1 -i 10 -a 1 -x {1.0 3.0 4 ------- null}
h -t 0.25875 -s 0 -d 3 -p tcp -e 1040 -c 1 -i 10 -a 1 -x {1.0 3.0 -1 ------- null}
+ -t 0.2590625 -s 2 -d 0 -p cbr -e 210 -c 2 -i 19 -a 2 -x {2.0 4.0 9 ------- null}
- -t 0.2590625 -s 2 -d 0 -p cbr -e 210 -c 2 -i 19 -a 2 -x {2.0 4.0 9 ------- null}
h -t 0.2590625 -s 2 -d 0 -p cbr -e 210 -c 2 -i 19 -a 2 -x {2.0 4.0 -1 ------- null}
r -t 0.25921875 -s 2 -d 0 -p cbr -e 210 -c 2 -i 17 -a 2 -x {2.0 4.0 7 ------- null}
+ -t 0.25921875 -s 0 -d 4 -p cbr -e 210 -c 2 -i 17 -a 2 -x {2.0 4.0 7 ------- null}
- -t 0.25921875 -s 0 -d 4 -p cbr -e 210 -c 2 -i 17 -a 2 -x {2.0 4.0 7 ------- null}
h -t 0.25921875 -s 0 -d 4 -p cbr -e 210 -c 2 -i 17 -a 2 -x {2.0 4.0 -1 ------- null}
r -t 0.259375 -s 0 -d 4 -p cbr -e 210 -c 2 -i 15 -a 2 -x {2.0 4.0 5 ------- null}
- -t 0.265 -s 1 -d 0 -p tcp -e 1040 -c 1 -i 14 -a 1 -x {1.0 3.0 6 ------- null}
h -t 0.265 -s 1 -d 0 -p tcp -e 1040 -c 1 -i 14 -a 1 -x {1.0 3.0 -1 ------- null}
+ -t 0.265625 -s 2 -d 0 -p cbr -e 210 -c 2 -i 20 -a 2 -x {2.0 4.0 10 ------- null}
- -t 0.265625 -s 2 -d 0 -p cbr -e 210 -c 2 -i 20 -a 2 -x {2.0 4.0 10 ------- null}
h -t 0.265625 -s 2 -d 0 -p cbr -e 210 -c 2 -i 20 -a 2 -x {2.0 4.0 -1 ------- null}
r -t 0.26578125 -s 2 -d 0 -p cbr -e 210 -c 2 -i 18 -a 2 -x {2.0 4.0 8 ------- null}
+ -t 0.26578125 -s 0 -d 4 -p cbr -e 210 -c 2 -i 18 -a 2 -x {2.0 4.0 8 ------- null}
- -t 0.26578125 -s 0 -d 4 -p cbr -e 210 -c 2 -i 18 -a 2 -x {2.0 4.0 8 ------- null}
h -t 0.26578125 -s 0 -d 4 -p cbr -e 210 -c 2 -i 18 -a 2 -x {2.0 4.0 -1 ------- null}
r -t 0.2659375 -s 0 -d 4 -p cbr -e 210 -c 2 -i 16 -a 2 -x {2.0 4.0 6 ------- null}
r -t 0.26875 -s 0 -d 3 -p tcp -e 1040 -c 1 -i 9 -a 1 -x {1.0 3.0 3 ------- null}
+ -t 0.26875 -s 3 -d 0 -p ack -e 40 -c 1 -i 21 -a 1 -x {3.0 1.0 3 ------- null}
- -t 0.26875 -s 3 -d 0 -p ack -e 40 -c 1 -i 21 -a 1 -x {3.0 1.0 3 ------- null}
h -t 0.26875 -s 3 -d 0 -p ack -e 40 -c 1 -i 21 -a 1 -x {3.0 1.0 -1 ------- null}
+ -t 0.2721875 -s 2 -d 0 -p cbr -e 210 -c 2 -i 22 -a 2 -x {2.0 4.0 11 ------- null}
- -t 0.2721875 -s 2 -d 0 -p cbr -e 210 -c 2 -i 22 -a 2 -x {2.0 4.0 11 ------- null}
h -t 0.2721875 -s 2 -d 0 -p cbr -e 210 -c 2 -i 22 -a 2 -x {2.0 4.0 -1 ------- null}
r -t 0.27234375 -s 2 -d 0 -p cbr -e 210 -c 2 -i 19 -a 2 -x {2.0 4.0 9 ------- null}
+ -t 0.27234375 -s 0 -d 4 -p cbr -e 210 -c 2 -i 19 -a 2 -x {2.0 4.0 9 ------- null}
- -t 0.27234375 -s 0 -d 4 -p cbr -e 210 -c 2 -i 19 -a 2 -x {2.0 4.0 9 ------- null}
h -t 0.27234375 -s 0 -d 4 -p cbr -e 210 -c 2 -i 19 -a 2 -x {2.0 4.0 -1 ------- null}
r -t 0.2725 -s 0 -d 4 -p cbr -e 210 -c 2 -i 17 -a 2 -x {2.0 4.0 7 ------- null}
r -t 0.275 -s 1 -d 0 -p tcp -e 1040 -c 1 -i 13 -a 1 -x {1.0 3.0 5 ------- null}
+ -t 0.275 -s 0 -d 3 -p tcp -e 1040 -c 1 -i 13 -a 1 -x {1.0 3.0 5 ------- null}
- -t 0.275 -s 0 -d 3 -p tcp -e 1040 -c 1 -i 13 -a 1 -x {1.0 3.0 5 ------- null}
h -t 0.275 -s 0 -d 3 -p tcp -e 1040 -c 1 -i 13 -a 1 -x {1.0 3.0 -1 ------- null}
+ -t 0.27875 -s 2 -d 0 -p cbr -e 210 -c 2 -i 23 -a 2 -x {2.0 4.0 12 ------- null}
- -t 0.27875 -s 2 -d 0 -p cbr -e 210 -c 2 -i 23 -a 2 -x {2.0 4.0 12 ------- null}
h -t 0.27875 -s 2 -d 0 -p cbr -e 210 -c 2 -i 23 -a 2 -x {2.0 4.0 -1 ------- null}
r -t 0.27890625 -s 2 -d 0 -p cbr -e 210 -c 2 -i 20 -a 2 -x {2.0 4.0 10 ------- null}
+ -t 0.27890625 -s 0 -d 4 -p cbr -e 210 -c 2 -i 20 -a 2 -x {2.0 4.0 10 ------- null}
- -t 0.27890625 -s 0 -d 4 -p cbr -e 210 -c 2 -i 20 -a 2 -x {2.0 4.0 10 ------- null}
h -t 0.27890625 -s 0 -d 4 -p cbr -e 210 -c 2 -i 20 -a 2 -x {2.0 4.0 -1 ------- null}
r -t 0.2790625 -s 0 -d 4 -p cbr -e 210 -c 2 -i 18 -a 2 -x {2.0 4.0 8 ------- null}
r -t 0.279375 -s 3 -d 0 -p ack -e 40 -c 1 -i 21 -a 1 -x {3.0 1.0 3 ------- null}
+ -t 0.279375 -s 0 -d 1 -p ack -e 40 -c 1 -i 21 -a 1 -x {3.0 1.0 3 ------- null}
- -t 0.279375 -s 0 -d 1 -p ack -e 40 -c 1 -i 21 -a 1 -x {3.0 1.0 3 ------- null}
h -t 0.279375 -s 0 -d 1 -p ack -e 40 -c 1 -i 21 -a 1 -x {3.0 1.0 -1 ------- null}
r -t 0.285 -s 0 -d 3 -p tcp -e 1040 -c 1 -i 10 -a 1 -x {1.0 3.0 4 ------- null}
+ -t 0.285 -s 3 -d 0 -p ack -e 40 -c 1 -i 24 -a 1 -x {3.0 1.0 4 ------- null}
- -t 0.285 -s 3 -d 0 -p ack -e 40 -c 1 -i 24 -a 1 -x {3.0 1.0 4 ------- null}
h -t 0.285 -s 3 -d 0 -p ack -e 40 -c 1 -i 24 -a 1 -x {3.0 1.0 -1 ------- null}
+ -t 0.2853125 -s 2 -d 0 -p cbr -e 210 -c 2 -i 25 -a 2 -x {2.0 4.0 13 ------- null}
- -t 0.2853125 -s 2 -d 0 -p cbr -e 210 -c 2 -i 25 -a 2 -x {2.0 4.0 13 ------- null}
h -t 0.2853125 -s 2 -d 0 -p cbr -e 210 -c 2 -i 25 -a 2 -x {2.0 4.0 -1 ------- null}
r -t 0.28546875 -s 2 -d 0 -p cbr -e 210 -c 2 -i 22 -a 2 -x {2.0 4.0 11 ------- null}
+ -t 0.28546875 -s 0 -d 4 -p cbr -e 210 -c 2 -i 22 -a 2 -x {2.0 4.0 11 ------- null}
- -t 0.28546875 -s 0 -d 4 -p cbr -e 210 -c 2 -i 22 -a 2 -x {2.0 4.0 11 ------- null}
h -t 0.28546875 -s 0 -d 4 -p cbr -e 210 -c 2 -i 22 -a 2 -x {2.0 4.0 -1 ------- null}
r -t 0.285625 -s 0 -d 4 -p cbr -e 210 -c 2 -i 19 -a 2 -x {2.0 4.0 9 ------- null}
r -t 0.29 -s 0 -d 1 -p ack -e 40 -c 1 -i 21 -a 1 -x {3.0 1.0 3 ------- null}
+ -t 0.29 -s 1 -d 0 -p tcp -e 1040 -c 1 -i 26 -a 1 -x {1.0 3.0 7 ------- null}
- -t 0.29 -s 1 -d 0 -p tcp -e 1040 -c 1 -i 26 -a 1 -x {1.0 3.0 7 ------- null}
h -t 0.29 -s 1 -d 0 -p tcp -e 1040 -c 1 -i 26 -a 1 -x {1.0 3.0 -1 ------- null}
+ -t 0.29 -s 1 -d 0 -p tcp -e 1040 -c 1 -i 27 -a 1 -x {1.0 3.0 8 ------- null}
r -t 0.29125 -s 1 -d 0 -p tcp -e 1040 -c 1 -i 14 -a 1 -x {1.0 3.0 6 ------- null}
+ -t 0.29125 -s 0 -d 3 -p tcp -e 1040 -c 1 -i 14 -a 1 -x {1.0 3.0 6 ------- null}
- -t 0.29125 -s 0 -d 3 -p tcp -e 1040 -c 1 -i 14 -a 1 -x {1.0 3.0 6 ------- null}
h -t 0.29125 -s 0 -d 3 -p tcp -e 1040 -c 1 -i 14 -a 1 -x {1.0 3.0 -1 ------- null}
+ -t 0.291875 -s 2 -d 0 -p cbr -e 210 -c 2 -i 28 -a 2 -x {2.0 4.0 14 ------- null}
- -t 0.291875 -s 2 -d 0 -p cbr -e 210 -c 2 -i 28 -a 2 -x {2.0 4.0 14 ------- null}
h -t 0.291875 -s 2 -d 0 -p cbr -e 210 -c 2 -i 28 -a 2 -x {2.0 4.0 -1 ------- null}
r -t 0.29203125 -s 2 -d 0 -p cbr -e 210 -c 2 -i 23 -a 2 -x {2.0 4.0 12 ------- null}
+ -t 0.29203125 -s 0 -d 4 -p cbr -e 210 -c 2 -i 23 -a 2 -x {2.0 4.0 12 ------- null}
- -t 0.29203125 -s 0 -d 4 -p cbr -e 210 -c 2 -i 23 -a 2 -x {2.0 4.0 12 ------- null}
h -t 0.29203125 -s 0 -d 4 -p cbr -e 210 -c 2 -i 23 -a 2 -x {2.0 4.0 -1 ------- null}
r -t 0.2921875 -s 0 -d 4 -p cbr -e 210 -c 2 -i 20 -a 2 -x {2.0 4.0 10 ------- null}
r -t 0.295625 -s 3 -d 0 -p ack -e 40 -c 1 -i 24 -a 1 -x {3.0 1.0 4 ------- null}
+ -t 0.295625 -s 0 -d 1 -p ack -e 40 -c 1 -i 24 -a 1 -x {3.0 1.0 4 ------- null}
- -t 0.295625 -s 0 -d 1 -p ack -e 40 -c 1 -i 24 -a 1 -x {3.0 1.0 4 ------- null}
h -t 0.295625 -s 0 -d 1 -p ack -e 40 -c 1 -i 24 -a 1 -x {3.0 1.0 -1 ------- null}
+ -t 0.2984375 -s 2 -d 0 -p cbr -e 210 -c 2 -i 29 -a 2 -x {2.0 4.0 15 ------- null}
- -t 0.2984375 -s 2 -d 0 -p cbr -e 210 -c 2 -i 29 -a 2 -x {2.0 4.0 15 ------- null}
h -t 0.2984375 -s 2 -d 0 -p cbr -e 210 -c 2 -i 29 -a 2 -x {2.0 4.0 -1 ------- null}
r -t 0.29859375 -s 2 -d 0 -p cbr -e 210 -c 2 -i 25 -a 2 -x {2.0 4.0 13 ------- null}
+ -t 0.29859375 -s 0 -d 4 -p cbr -e 210 -c 2 -i 25 -a 2 -x {2.0 4.0 13 ------- null}
- -t 0.29859375 -s 0 -d 4 -p cbr -e 210 -c 2 -i 25 -a 2 -x {2.0 4.0 13 ------- null}
h -t 0.29859375 -s 0 -d 4 -p cbr -e 210 -c 2 -i 25 -a 2 -x {2.0 4.0 -1 ------- null}
r -t 0.29875 -s 0 -d 4 -p cbr -e 210 -c 2 -i 22 -a 2 -x {2.0 4.0 11 ------- null}
r -t 0.30125 -s 0 -d 3 -p tcp -e 1040 -c 1 -i 13 -a 1 -x {1.0 3.0 5 ------- null}
+ -t 0.30125 -s 3 -d 0 -p ack -e 40 -c 1 -i 30 -a 1 -x {3.0 1.0 5 ------- null}
- -t 0.30125 -s 3 -d 0 -p ack -e 40 -c 1 -i 30 -a 1 -x {3.0 1.0 5 ------- null}
h -t 0.30125 -s 3 -d 0 -p ack -e 40 -c 1 -i 30 -a 1 -x {3.0 1.0 -1 ------- null}
+ -t 0.305 -s 2 -d 0 -p cbr -e 210 -c 2 -i 31 -a 2 -x {2.0 4.0 16 ------- null}
- -t 0.305 -s 2 -d 0 -p cbr -e 210 -c 2 -i 31 -a 2 -x {2.0 4.0 16 ------- null}
h -t 0.305 -s 2 -d 0 -p cbr -e 210 -c 2 -i 31 -a 2 -x {2.0 4.0 -1 ------- null}
r -t 0.30515625 -s 2 -d 0 -p cbr -e 210 -c 2 -i 28 -a 2 -x {2.0 4.0 14 ------- null}
+ -t 0.30515625 -s 0 -d 4 -p cbr -e 210 -c 2 -i 28 -a 2 -x {2.0 4.0 14 ------- null}
- -t 0.30515625 -s 0 -d 4 -p cbr -e 210 -c 2 -i 28 -a 2 -x {2.0 4.0 14 ------- null}
h -t 0.30515625 -s 0 -d 4 -p cbr -e 210 -c 2 -i 28 -a 2 -x {2.0 4.0 -1 ------- null}
r -t 0.3053125 -s 0 -d 4 -p cbr -e 210 -c 2 -i 23 -a 2 -x {2.0 4.0 12 ------- null}
- -t 0.30625 -s 1 -d 0 -p tcp -e 1040 -c 1 -i 27 -a 1 -x {1.0 3.0 8 ------- null}
h -t 0.30625 -s 1 -d 0 -p tcp -e 1040 -c 1 -i 27 -a 1 -x {1.0 3.0 -1 ------- null}
r -t 0.30625 -s 0 -d 1 -p ack -e 40 -c 1 -i 24 -a 1 -x {3.0 1.0 4 ------- null}
+ -t 0.30625 -s 1 -d 0 -p tcp -e 1040 -c 1 -i 32 -a 1 -x {1.0 3.0 9 ------- null}
+ -t 0.30625 -s 1 -d 0 -p tcp -e 1040 -c 1 -i 33 -a 1 -x {1.0 3.0 10 ------- null}
+ -t 0.3115625 -s 2 -d 0 -p cbr -e 210 -c 2 -i 34 -a 2 -x {2.0 4.0 17 ------- null}
- -t 0.3115625 -s 2 -d 0 -p cbr -e 210 -c 2 -i 34 -a 2 -x {2.0 4.0 17 ------- null}
h -t 0.3115625 -s 2 -d 0 -p cbr -e 210 -c 2 -i 34 -a 2 -x {2.0 4.0 -1 ------- null}
r -t 0.31171875 -s 2 -d 0 -p cbr -e 210 -c 2 -i 29 -a 2 -x {2.0 4.0 15 ------- null}
+ -t 0.31171875 -s 0 -d 4 -p cbr -e 210 -c 2 -i 29 -a 2 -x {2.0 4.0 15 ------- null}
- -t 0.31171875 -s 0 -d 4 -p cbr -e 210 -c 2 -i 29 -a 2 -x {2.0 4.0 15 ------- null}
h -t 0.31171875 -s 0 -d 4 -p cbr -e 210 -c 2 -i 29 -a 2 -x {2.0 4.0 -1 ------- null}
r -t 0.311875 -s 3 -d 0 -p ack -e 40 -c 1 -i 30 -a 1 -x {3.0 1.0 5 ------- null}
+ -t 0.311875 -s 0 -d 1 -p ack -e 40 -c 1 -i 30 -a 1 -x {3.0 1.0 5 ------- null}
- -t 0.311875 -s 0 -d 1 -p ack -e 40 -c 1 -i 30 -a 1 -x {3.0 1.0 5 ------- null}
h -t 0.311875 -s 0 -d 1 -p ack -e 40 -c 1 -i 30 -a 1 -x {3.0 1.0 -1 ------- null}
r -t 0.311875 -s 0 -d 4 -p cbr -e 210 -c 2 -i 25 -a 2 -x {2.0 4.0 13 ------- null}
r -t 0.31625 -s 1 -d 0 -p tcp -e 1040 -c 1 -i 26 -a 1 -x {1.0 3.0 7 ------- null}
+ -t 0.31625 -s 0 -d 3 -p tcp -e 1040 -c 1 -i 26 -a 1 -x {1.0 3.0 7 ------- null}
- -t 0.31625 -s 0 -d 3 -p tcp -e 1040 -c 1 -i 26 -a 1 -x {1.0 3.0 7 ------- null}
h -t 0.31625 -s 0 -d 3 -p tcp -e 1040 -c 1 -i 26 -a 1 -x {1.0 3.0 -1 ------- null}
r -t 0.3175 -s 0 -d 3 -p tcp -e 1040 -c 1 -i 14 -a 1 -x {1.0 3.0 6 ------- null}
+ -t 0.3175 -s 3 -d 0 -p ack -e 40 -c 1 -i 35 -a 1 -x {3.0 1.0 6 ------- null}
- -t 0.3175 -s 3 -d 0 -p ack -e 40 -c 1 -i 35 -a 1 -x {3.0 1.0 6 ------- null}
h -t 0.3175 -s 3 -d 0 -p ack -e 40 -c 1 -i 35 -a 1 -x {3.0 1.0 -1 ------- null}
+ -t 0.318125 -s 2 -d 0 -p cbr -e 210 -c 2 -i 36 -a 2 -x {2.0 4.0 18 ------- null}
- -t 0.318125 -s 2 -d 0 -p cbr -e 210 -c 2 -i 36 -a 2 -x {2.0 4.0 18 ------- null}
h -t 0.318125 -s 2 -d 0 -p cbr -e 210 -c 2 -i 36 -a 2 -x {2.0 4.0 -1 ------- null}
r -t 0.31828125 -s 2 -d 0 -p cbr -e 210 -c 2 -i 31 -a 2 -x {2.0 4.0 16 ------- null}
+ -t 0.31828125 -s 0 -d 4 -p cbr -e 210 -c 2 -i 31 -a 2 -x {2.0 4.0 16 ------- null}
- -t 0.31828125 -s 0 -d 4 -p cbr -e 210 -c 2 -i 31 -a 2 -x {2.0 4.0 16 ------- null}
h -t 0.31828125 -s 0 -d 4 -p cbr -e 210 -c 2 -i 31 -a 2 -x {2.0 4.0 -1 ------- null}
r -t 0.3184375 -s 0 -d 4 -p cbr -e 210 -c 2 -i 28 -a 2 -x {2.0 4.0 14 ------- null}
- -t 0.3225 -s 1 -d 0 -p tcp -e 1040 -c 1 -i 32 -a 1 -x {1.0 3.0 9 ------- null}
h -t 0.3225 -s 1 -d 0 -p tcp -e 1040 -c 1 -i 32 -a 1 -x {1.0 3.0 -1 ------- null}
r -t 0.3225 -s 0 -d 1 -p ack -e 40 -c 1 -i 30 -a 1 -x {3.0 1.0 5 ------- null}
+ -t 0.3225 -s 1 -d 0 -p tcp -e 1040 -c 1 -i 37 -a 1 -x {1.0 3.0 11 ------- null}
+ -t 0.3225 -s 1 -d 0 -p tcp -e 1040 -c 1 -i 38 -a 1 -x {1.0 3.0 12 ------- null}
+ -t 0.3246875 -s 2 -d 0 -p cbr -e 210 -c 2 -i 39 -a 2 -x {2.0 4.0 19 ------- null}
- -t 0.3246875 -s 2 -d 0 -p cbr -e 210 -c 2 -i 39 -a 2 -x {2.0 4.0 19 ------- null}
h -t 0.3246875 -s 2 -d 0 -p cbr -e 210 -c 2 -i 39 -a 2 -x {2.0 4.0 -1 ------- null}
r -t 0.32484375 -s 2 -d 0 -p cbr -e 210 -c 2 -i 34 -a 2 -x {2.0 4.0 17 ------- null}
+ -t 0.32484375 -s 0 -d 4 -p cbr -e 210 -c 2 -i 34 -a 2 -x {2.0 4.0 17 ------- null}
- -t 0.32484375 -s 0 -d 4 -p cbr -e 210 -c 2 -i 34 -a 2 -x {2.0 4.0 17 ------- null}
h -t 0.32484375 -s 0 -d 4 -p cbr -e 210 -c 2 -i 34 -a 2 -x {2.0 4.0 -1 ------- null}
r -t 0.325 -s 0 -d 4 -p cbr -e 210 -c 2 -i 29 -a 2 -x {2.0 4.0 15 ------- null}
r -t 0.328125 -s 3 -d 0 -p ack -e 40 -c 1 -i 35 -a 1 -x {3.0 1.0 6 ------- null}
+ -t 0.328125 -s 0 -d 1 -p ack -e 40 -c 1 -i 35 -a 1 -x {3.0 1.0 6 ------- null}
- -t 0.328125 -s 0 -d 1 -p ack -e 40 -c 1 -i 35 -a 1 -x {3.0 1.0 6 ------- null}
h -t 0.328125 -s 0 -d 1 -p ack -e 40 -c 1 -i 35 -a 1 -x {3.0 1.0 -1 ------- null}
+ -t 0.33125 -s 2 -d 0 -p cbr -e 210 -c 2 -i 40 -a 2 -x {2.0 4.0 20 ------- null}
- -t 0.33125 -s 2 -d 0 -p cbr -e 210 -c 2 -i 40 -a 2 -x {2.0 4.0 20 ------- null}
h -t 0.33125 -s 2 -d 0 -p cbr -e 210 -c 2 -i 40 -a 2 -x {2.0 4.0 -1 ------- null}
r -t 0.33140625 -s 2 -d 0 -p cbr -e 210 -c 2 -i 36 -a 2 -x {2.0 4.0 18 ------- null}
+ -t 0.33140625 -s 0 -d 4 -p cbr -e 210 -c 2 -i 36 -a 2 -x {2.0 4.0 18 ------- null}
- -t 0.33140625 -s 0 -d 4 -p cbr -e 210 -c 2 -i 36 -a 2 -x {2.0 4.0 18 ------- null}
h -t 0.33140625 -s 0 -d 4 -p cbr -e 210 -c 2 -i 36 -a 2 -x {2.0 4.0 -1 ------- null}
r -t 0.3315625 -s 0 -d 4 -p cbr -e 210 -c 2 -i 31 -a 2 -x {2.0 4.0 16 ------- null}
r -t 0.3325 -s 1 -d 0 -p tcp -e 1040 -c 1 -i 27 -a 1 -x {1.0 3.0 8 ------- null}
+ -t 0.3325 -s 0 -d 3 -p tcp -e 1040 -c 1 -i 27 -a 1 -x {1.0 3.0 8 ------- null}
- -t 0.3325 -s 0 -d 3 -p tcp -e 1040 -c 1 -i 27 -a 1 -x {1.0 3.0 8 ------- null}
h -t 0.3325 -s 0 -d 3 -p tcp -e 1040 -c 1 -i 27 -a 1 -x {1.0 3.0 -1 ------- null}
+ -t 0.3378125 -s 2 -d 0 -p cbr -e 210 -c 2 -i 41 -a 2 -x {2.0 4.0 21 ------- null}
- -t 0.3378125 -s 2 -d 0 -p cbr -e 210 -c 2 -i 41 -a 2 -x {2.0 4.0 21 ------- null}
h -t 0.3378125 -s 2 -d 0 -p cbr -e 210 -c 2 -i 41 -a 2 -x {2.0 4.0 -1 ------- null}
r -t 0.33796875 -s 2 -d 0 -p cbr -e 210 -c 2 -i 39 -a 2 -x {2.0 4.0 19 ------- null}
+ -t 0.33796875 -s 0 -d 4 -p cbr -e 210 -c 2 -i 39 -a 2 -x {2.0 4.0 19 ------- null}
- -t 0.33796875 -s 0 -d 4 -p cbr -e 210 -c 2 -i 39 -a 2 -x {2.0 4.0 19 ------- null}
h -t 0.33796875 -s 0 -d 4 -p cbr -e 210 -c 2 -i 39 -a 2 -x {2.0 4.0 -1 ------- null}
r -t 0.338125 -s 0 -d 4 -p cbr -e 210 -c 2 -i 34 -a 2 -x {2.0 4.0 17 ------- null}
- -t 0.33875 -s 1 -d 0 -p tcp -e 1040 -c 1 -i 33 -a 1 -x {1.0 3.0 10 ------- null}
h -t 0.33875 -s 1 -d 0 -p tcp -e 1040 -c 1 -i 33 -a 1 -x {1.0 3.0 -1 ------- null}
r -t 0.33875 -s 0 -d 1 -p ack -e 40 -c 1 -i 35 -a 1 -x {3.0 1.0 6 ------- null}
+ -t 0.33875 -s 1 -d 0 -p tcp -e 1040 -c 1 -i 42 -a 1 -x {1.0 3.0 13 ------- null}
+ -t 0.33875 -s 1 -d 0 -p tcp -e 1040 -c 1 -i 43 -a 1 -x {1.0 3.0 14 ------- null}
r -t 0.3425 -s 0 -d 3 -p tcp -e 1040 -c 1 -i 26 -a 1 -x {1.0 3.0 7 ------- null}
+ -t 0.3425 -s 3 -d 0 -p ack -e 40 -c 1 -i 44 -a 1 -x {3.0 1.0 7 ------- null}
- -t 0.3425 -s 3 -d 0 -p ack -e 40 -c 1 -i 44 -a 1 -x {3.0 1.0 7 ------- null}
h -t 0.3425 -s 3 -d 0 -p ack -e 40 -c 1 -i 44 -a 1 -x {3.0 1.0 -1 ------- null}
+ -t 0.344375 -s 2 -d 0 -p cbr -e 210 -c 2 -i 45 -a 2 -x {2.0 4.0 22 ------- null}
- -t 0.344375 -s 2 -d 0 -p cbr -e 210 -c 2 -i 45 -a 2 -x {2.0 4.0 22 ------- null}
h -t 0.344375 -s 2 -d 0 -p cbr -e 210 -c 2 -i 45 -a 2 -x {2.0 4.0 -1 ------- null}
r -t 0.34453125 -s 2 -d 0 -p cbr -e 210 -c 2 -i 40 -a 2 -x {2.0 4.0 20 ------- null}
+ -t 0.34453125 -s 0 -d 4 -p cbr -e 210 -c 2 -i 40 -a 2 -x {2.0 4.0 20 ------- null}
- -t 0.34453125 -s 0 -d 4 -p cbr -e 210 -c 2 -i 40 -a 2 -x {2.0 4.0 20 ------- null}
h -t 0.34453125 -s 0 -d 4 -p cbr -e 210 -c 2 -i 40 -a 2 -x {2.0 4.0 -1 ------- null}
r -t 0.3446875 -s 0 -d 4 -p cbr -e 210 -c 2 -i 36 -a 2 -x {2.0 4.0 18 ------- null}
r -t 0.34875 -s 1 -d 0 -p tcp -e 1040 -c 1 -i 32 -a 1 -x {1.0 3.0 9 ------- null}
+ -t 0.34875 -s 0 -d 3 -p tcp -e 1040 -c 1 -i 32 -a 1 -x {1.0 3.0 9 ------- null}
- -t 0.34875 -s 0 -d 3 -p tcp -e 1040 -c 1 -i 32 -a 1 -x {1.0 3.0 9 ------- null}
h -t 0.34875 -s 0 -d 3 -p tcp -e 1040 -c 1 -i 32 -a 1 -x {1.0 3.0 -1 ------- null}
+ -t 0.3509375 -s 2 -d 0 -p cbr -e 210 -c 2 -i 46 -a 2 -x {2.0 4.0 23 ------- null}
- -t 0.3509375 -s 2 -d 0 -p cbr -e 210 -c 2 -i 46 -a 2 -x {2.0 4.0 23 ------- null}
h -t 0.3509375 -s 2 -d 0 -p cbr -e 210 -c 2 -i 46 -a 2 -x {2.0 4.0 -1 ------- null}
r -t 0.35109375 -s 2 -d 0 -p cbr -e 210 -c 2 -i 41 -a 2 -x {2.0 4.0 21 ------- null}
+ -t 0.35109375 -s 0 -d 4 -p cbr -e 210 -c 2 -i 41 -a 2 -x {2.0 4.0 21 ------- null}
- -t 0.35109375 -s 0 -d 4 -p cbr -e 210 -c 2 -i 41 -a 2 -x {2.0 4.0 21 ------- null}
h -t 0.35109375 -s 0 -d 4 -p cbr -e 210 -c 2 -i 41 -a 2 -x {2.0 4.0 -1 ------- null}
r -t 0.35125 -s 0 -d 4 -p cbr -e 210 -c 2 -i 39 -a 2 -x {2.0 4.0 19 ------- null}
r -t 0.353125 -s 3 -d 0 -p ack -e 40 -c 1 -i 44 -a 1 -x {3.0 1.0 7 ------- null}
+ -t 0.353125 -s 0 -d 1 -p ack -e 40 -c 1 -i 44 -a 1 -x {3.0 1.0 7 ------- null}
- -t 0.353125 -s 0 -d 1 -p ack -e 40 -c 1 -i 44 -a 1 -x {3.0 1.0 7 ------- null}
h -t 0.353125 -s 0 -d 1 -p ack -e 40 -c 1 -i 44 -a 1 -x {3.0 1.0 -1 ------- null}
- -t 0.355 -s 1 -d 0 -p tcp -e 1040 -c 1 -i 37 -a 1 -x {1.0 3.0 11 ------- null}
h -t 0.355 -s 1 -d 0 -p tcp -e 1040 -c 1 -i 37 -a 1 -x {1.0 3.0 -1 ------- null}
+ -t 0.3575 -s 2 -d 0 -p cbr -e 210 -c 2 -i 47 -a 2 -x {2.0 4.0 24 ------- null}
- -t 0.3575 -s 2 -d 0 -p cbr -e 210 -c 2 -i 47 -a 2 -x {2.0 4.0 24 ------- null}
h -t 0.3575 -s 2 -d 0 -p cbr -e 210 -c 2 -i 47 -a 2 -x {2.0 4.0 -1 ------- null}
r -t 0.35765625 -s 2 -d 0 -p cbr -e 210 -c 2 -i 45 -a 2 -x {2.0 4.0 22 ------- null}
+ -t 0.35765625 -s 0 -d 4 -p cbr -e 210 -c 2 -i 45 -a 2 -x {2.0 4.0 22 ------- null}
- -t 0.35765625 -s 0 -d 4 -p cbr -e 210 -c 2 -i 45 -a 2 -x {2.0 4.0 22 ------- null}
h -t 0.35765625 -s 0 -d 4 -p cbr -e 210 -c 2 -i 45 -a 2 -x {2.0 4.0 -1 ------- null}
r -t 0.3578125 -s 0 -d 4 -p cbr -e 210 -c 2 -i 40 -a 2 -x {2.0 4.0 20 ------- null}
r -t 0.35875 -s 0 -d 3 -p tcp -e 1040 -c 1 -i 27 -a 1 -x {1.0 3.0 8 ------- null}
+ -t 0.35875 -s 3 -d 0 -p ack -e 40 -c 1 -i 48 -a 1 -x {3.0 1.0 8 ------- null}
- -t 0.35875 -s 3 -d 0 -p ack -e 40 -c 1 -i 48 -a 1 -x {3.0 1.0 8 ------- null}
h -t 0.35875 -s 3 -d 0 -p ack -e 40 -c 1 -i 48 -a 1 -x {3.0 1.0 -1 ------- null}
r -t 0.36375 -s 0 -d 1 -p ack -e 40 -c 1 -i 44 -a 1 -x {3.0 1.0 7 ------- null}
+ -t 0.36375 -s 1 -d 0 -p tcp -e 1040 -c 1 -i 49 -a 1 -x {1.0 3.0 15 ------- null}
+ -t 0.36375 -s 1 -d 0 -p tcp -e 1040 -c 1 -i 50 -a 1 -x {1.0 3.0 16 ------- null}
+ -t 0.3640625 -s 2 -d 0 -p cbr -e 210 -c 2 -i 51 -a 2 -x {2.0 4.0 25 ------- null}
- -t 0.3640625 -s 2 -d 0 -p cbr -e 210 -c 2 -i 51 -a 2 -x {2.0 4.0 25 ------- null}
h -t 0.3640625 -s 2 -d 0 -p cbr -e 210 -c 2 -i 51 -a 2 -x {2.0 4.0 -1 ------- null}
r -t 0.36421875 -s 2 -d 0 -p cbr -e 210 -c 2 -i 46 -a 2 -x {2.0 4.0 23 ------- null}
+ -t 0.36421875 -s 0 -d 4 -p cbr -e 210 -c 2 -i 46 -a 2 -x {2.0 4.0 23 ------- null}
- -t 0.36421875 -s 0 -d 4 -p cbr -e 210 -c 2 -i 46 -a 2 -x {2.0 4.0 23 ------- null}
h -t 0.36421875 -s 0 -d 4 -p cbr -e 210 -c 2 -i 46 -a 2 -x {2.0 4.0 -1 ------- null}
r -t 0.364375 -s 0 -d 4 -p cbr -e 210 -c 2 -i 41 -a 2 -x {2.0 4.0 21 ------- null}
r -t 0.365 -s 1 -d 0 -p tcp -e 1040 -c 1 -i 33 -a 1 -x {1.0 3.0 10 ------- null}